 +-------------------------------------------------+
 |                                                 |
 |      CCC   AA    SSS  TTTTT  EEEEE  PPPP        |
 |     C     A  A  S       T    E      P   P       |
 |     C     AAAA   SS     T    EEE    PPPP        |
 |     C     A  A     S    T    E      P           |
 |      CCC  A  A  SSS     T    EEEEE  P           |
 |                                                 |
 +-------------------------------------------------+
 |                                                 |
 | Welcome to Academic Release CASTEP version 16.1 |          
 | Ab Initio Total Energy Program                  |
 |                                                 |
 | Authors:                                        |
 | M. Segall, M. Probert, C. Pickard, P. Hasnip,   |
 | S. Clark, K. Refson, J. R. Yates, M. Payne      |
 |                                                 |
 | Contributors:                                   |
 | P. Lindan, P. Haynes, J. White, V. Milman,      |
 | N. Govind, M. Gibson, P. Tulip, V. Cocula,      |
 | B. Montanari, D. Quigley, M. Glover,            |
 | L. Bernasconi, A. Perlov, M. Plummer,           |
 | E. McNellis, J. Meyer, J. Gale, D. Jochym       |
 | J. Aarons, B. Walker, R. Gillen, D. Jones       |
 | T. Green, I. J. Bush, C. J. Armstrong,          |
 | E. J. Higgins, E. L. Brown, M. S. McFly         |
 |                                                 |
 | Copyright (c) 2000 - 2015                       |
 |                                                 |
 |     Distributed under the terms of an           |
 |     Agreement between the United Kingdom        |
 |     Car-Parrinello (UKCP) Consortium,           |
 |     Daresbury Laboratory and Accelrys, Inc.     |
 |                                                 |
 | Please cite                                     |
 |                                                 |
 |     "First principles methods using CASTEP"     |
 |                                                 |
 |         Zeitschrift fuer Kristallographie       |
 |           220(5-6) pp. 567-570 (2005)           |
 |                                                 |
 | S. J. Clark, M. D. Segall, C. J. Pickard,       |
 | P. J. Hasnip, M. J. Probert, K. Refson,         |
 | M. C. Payne                                     |
 |                                                 |
 |       in all publications arising from          |
 |              your use of CASTEP                 |
 |                                                 |
 +-------------------------------------------------+


 Compiled for darwin_x86_64_gfortran4.9 on Tue, 15 Dec 2015 16:29:18 +0000
 from code version b833c1ffcd7d+  Fri, 13 Jun 2014 17:24:31 +0100
 Compiler: GNU Fortran 4.9.1; Optimisation: intermediate
 MATHLIBS: default (LAPACK version 3.2.1)
 FFT Lib : default
 Fundamental constants values: CODATA 2010

 Run started: Wed, 27 Jan 2016 11:00:14 +0100

 Pseudo atomic calculation performed for Si 3s2 3p2

 Converged in 16 iterations to a total energy of -102.0354 eV

 Calculation not parallelised.

 ************************************ Title ************************************
 

 ***************************** General Parameters ******************************
  
 output verbosity                               : normal  (1)
 write checkpoint data to                       : Si2.check
 type of calculation                            : band structure
 stress calculation                             : off
 density difference calculation                 : off
 electron localisation func (ELF) calculation   : off
 Hirshfeld analysis                             : off
 unlimited duration calculation
 timing information                             : on
 memory usage estimate                          : on
 write final potential to formatted file        : off
 write final density to formatted file          : on
 write BibTeX reference list                    : on
 write OTFG pseudopotential files               : on
 checkpoint writing                             : both castep_bin and check files
  
 output         length unit                     : A
 output           mass unit                     : amu
 output           time unit                     : ps
 output         charge unit                     : e
 output           spin unit                     : hbar/2
 output         energy unit                     : eV
 output          force unit                     : eV/A
 output       velocity unit                     : A/ps
 output       pressure unit                     : GPa
 output     inv_length unit                     : 1/A
 output      frequency unit                     : cm-1
 output force constant unit                     : eV/A**2
 output         volume unit                     : A**3
 output   IR intensity unit                     : (D/A)**2/amu
 output         dipole unit                     : D
 output         efield unit                     : eV/A/e
 output        entropy unit                     : J/mol/K
  
 wavefunctions paging                           : none
 random number generator seed                   : randomised (110014674)
 data distribution                              : optimal for this architecture
 optimization strategy                          : maximize speed(+++)

 *********************** Exchange-Correlation Parameters ***********************
  
 using functional                               : Local Density Approximation
 relativistic treatment                         : Koelling-Harmon
 DFT+D: Semi-empirical dispersion correction    : off

 ************************* Pseudopotential Parameters **************************
  
 pseudopotential representation                 : reciprocal space
 <beta|phi> representation                      : reciprocal space
 spin-orbit coupling                            : off

 **************************** Basis Set Parameters *****************************
  
 basis set accuracy                             : MEDIUM
 plane wave basis set cut-off                   :   120.0000   eV
 size of standard grid                          :     1.7500
 size of   fine   gmax                          :     9.8213   1/A
 finite basis set correction                    : none

 **************************** Electronic Parameters ****************************
  
 number of  electrons                           :  8.000    
 net charge of system                           :  0.000    
 net spin   of system                           :  1.000    
 number of  up  spins                           :  4.500    
 number of down spins                           :  3.500    
 treating system as spin-polarized
 number of bands                                :          5

 ********************* Electronic Minimization Parameters **********************
  
 Method: Treating system as non-metallic,
         and number of  SD  steps               :          1
         and number of  CG  steps               :          4
  
 total energy / atom convergence tol.           : 0.1000E-04   eV
 max force / atom convergence tol.              : ignored
 convergence tolerance window                   :          3   cycles
 max. number of SCF cycles                      :         30
 periodic dipole correction                     : NONE

 *********************** Population Analysis Parameters ************************
  
 Population analysis with cutoff                :  3.000       A

 ************************** Band Structure Parameters **************************
  
 max. number of iterations                      :         60
 max. CG steps in BS calc                       :         25
 number of bands / k-point                      :          6
 band convergence tolerance                     : 0.1000E-05   eV
 write orbitals file                            : on

 *******************************************************************************
  

                           -------------------------------
                                      Unit Cell
                           -------------------------------
        Real Lattice(A)                      Reciprocal Lattice(1/A)
   2.6954645   2.6954645   0.0000000        1.1655107   1.1655107  -1.1655107
   2.6954645   0.0000000   2.6954645        1.1655107  -1.1655107   1.1655107
   0.0000000   2.6954645   2.6954645       -1.1655107   1.1655107   1.1655107

                       Lattice parameters(A)       Cell Angles
                    a =    3.811962          alpha =   60.000000
                    b =    3.811962          beta  =   60.000000
                    c =    3.811962          gamma =   60.000000

                       Current cell volume =   39.167950       A**3

                           -------------------------------
                                     Cell Contents
                           -------------------------------
                         Total number of ions in cell =    2
                      Total number of species in cell =    1
                        Max number of any one species =    2

            xxxxxxxxxxxxxxxxxxxxxxxxxxxxxxxxxxxxxxxxxxxxxxxxxxxxxxxxxxxx
            x  Element    Atom        Fractional coordinates of atoms  x
            x            Number           u          v          w      x
            x----------------------------------------------------------x
            x  Si           1         0.000000   0.000000   0.000000   x 
            x  Si           2         0.250000   0.250000   0.250000   x 
            xxxxxxxxxxxxxxxxxxxxxxxxxxxxxxxxxxxxxxxxxxxxxxxxxxxxxxxxxxxx


                         No user defined ionic velocities

                           -------------------------------
                                   Details of Species
                           -------------------------------

                               Mass of species in AMU
                                    Si   28.0855000

                          Electric Quadrupole Moment (Barn)
                                    Si    1.0000000 No Isotope Defined

                          Files used for pseudopotentials:
                                    Si Si_00.usp

                           -------------------------------
                              k-Points For BZ Sampling
                           -------------------------------
                       MP grid size for SCF calculation is  4  4  4
                            with an offset of   0.000  0.000  0.000
                       Number of kpoints used =            10

                           -------------------------------
                               Symmetry and Constraints
                           -------------------------------

                      Maximum deviation from symmetry =  0.00000         ANG

                      Number of symmetry operations   =          48
                      Number of ionic constraints     =           3
                      Point group of crystal =    32: Oh, m-3m, 4/m -3 2/m
                      Space group of crystal =   227: Fd-3m, F 4d 2 3 -1d

             Set iprint > 1 for details on symmetry rotations/translations

                         Centre of mass is constrained
             Set iprint > 1 for details of linear ionic constraints

                         Number of cell constraints= 5
                         Cell constraints are:  1 1 1 0 0 0

                         External pressure/stress (GPa)
                          0.00000   0.00000   0.00000
                                    0.00000   0.00000
                                              0.00000
  
+---------------- MEMORY AND SCRATCH DISK ESTIMATES PER PROCESS --------------+
|                                                     Memory          Disk    |
| Baseline code, static data and system overhead        0.0 MB         0.0 MB |
| BLAS internal memory storage                          0.0 MB         0.0 MB |
| Model and support data                                3.0 MB         0.0 MB |
| Electronic energy minimisation requirements           1.3 MB         0.0 MB |
| Force calculation requirements                        0.3 MB         0.0 MB |
|                                               ----------------------------- |
| Approx. total storage required per process            4.2 MB         0.0 MB |
|                                                                             |
| Requirements will fluctuate during execution and may exceed these estimates |
+-----------------------------------------------------------------------------+
------------------------------------------------------------------------ <-- SCF
SCF loop      Energy                           Energy gain       Timer   <-- SCF
                                               per atom          (sec)   <-- SCF
------------------------------------------------------------------------ <-- SCF
Initial   1.60393934E+002                                          0.38  <-- SCF
      1  -2.06307977E+002                    1.83350956E+002       0.78  <-- SCF
      2  -2.13937006E+002                    3.81451452E+000       1.18  <-- SCF
      3  -2.14094805E+002                    7.88994325E-002       1.56  <-- SCF
      4  -2.14114783E+002                    9.98894901E-003       1.94  <-- SCF
      5  -2.14116939E+002                    1.07819701E-003       2.34  <-- SCF
      6  -2.14117356E+002                    2.08378307E-004       2.73  <-- SCF
      7  -2.14117439E+002                    4.14901709E-005       3.10  <-- SCF
      8  -2.14117460E+002                    1.05277744E-005       3.49  <-- SCF
      9  -2.14117463E+002                    1.51986736E-006       3.86  <-- SCF
     10  -2.14117464E+002                    4.57629797E-007       4.25  <-- SCF
------------------------------------------------------------------------ <-- SCF
 
Integrated Spin Density     =     1.00000     hbar/2                        
Integrated |Spin Density|   =     1.00000     hbar/2                        
 
Final energy =  -214.1174641911     eV
(energy not corrected for finite basis set)
 

Writing analysis data to Si2.castep_bin

Writing model to Si2.check
  
+---------------- MEMORY AND SCRATCH DISK ESTIMATES PER PROCESS --------------+
|                                                     Memory          Disk    |
| Baseline code, static data and system overhead        0.0 MB         0.0 MB |
| BLAS internal memory storage                          0.0 MB         0.0 MB |
| Model and support data                                4.3 MB         0.0 MB |
| Band structure calculation requirements               3.6 MB         0.0 MB |
| Force calculation requirements                        0.3 MB         0.0 MB |
|                                               ----------------------------- |
| Approx. total storage required per process            7.9 MB         0.0 MB |
|                                                                             |
| Requirements will fluctuate during execution and may exceed these estimates |
+-----------------------------------------------------------------------------+
  =====================================================================
  +  Fermi energy for spin  up  electrons is:     6.55868 eV          +
  +  Fermi energy for spin down electrons is:     6.55868 eV          +
  +                                                                   +
  +       B A N D   S T R U C T U R E   C A L C U L A T I O N         +
  +      (General k-point calculation - complex wavefunctions)        +
  +                                                                   +
  + ================================================================= +
  +                                                                   +
  +     Band Structure Calculation: Progress report on root process   +
  +                                                                   +
  +   There are   44 BS k-points. Root process contains   44 of them. +
  +                                                                   +
  +   Spin= 1 of  2, K-point=   1 of   44 completed, Time:     0.05s. +
  +   Spin= 1 of  2, K-point=   2 of   44 completed, Time:     0.04s. +
  +   Spin= 1 of  2, K-point=   3 of   44 completed, Time:     0.04s. +
  +   Spin= 1 of  2, K-point=   4 of   44 completed, Time:     0.03s. +
  +   Spin= 1 of  2, K-point=   5 of   44 completed, Time:     0.03s. +
  +   Spin= 1 of  2, K-point=   6 of   44 completed, Time:     0.03s. +
  +   Spin= 1 of  2, K-point=   7 of   44 completed, Time:     0.04s. +
  +   Spin= 1 of  2, K-point=   8 of   44 completed, Time:     0.03s. +
  +   Spin= 1 of  2, K-point=   9 of   44 completed, Time:     0.04s. +
  +   Spin= 1 of  2, K-point=  10 of   44 completed, Time:     0.04s. +
  +   Spin= 1 of  2, K-point=  11 of   44 completed, Time:     0.04s. +
  +   Spin= 1 of  2, K-point=  12 of   44 completed, Time:     0.04s. +
  +   Spin= 1 of  2, K-point=  13 of   44 completed, Time:     0.04s. +
  +   Spin= 1 of  2, K-point=  14 of   44 completed, Time:     0.03s. +
  +   Spin= 1 of  2, K-point=  15 of   44 completed, Time:     0.04s. +
  +   Spin= 1 of  2, K-point=  16 of   44 completed, Time:     0.03s. +
  +   Spin= 1 of  2, K-point=  17 of   44 completed, Time:     0.03s. +
  +   Spin= 1 of  2, K-point=  18 of   44 completed, Time:     0.03s. +
  +   Spin= 1 of  2, K-point=  19 of   44 completed, Time:     0.04s. +
  +   Spin= 1 of  2, K-point=  20 of   44 completed, Time:     0.03s. +
  +   Spin= 1 of  2, K-point=  21 of   44 completed, Time:     0.03s. +
  +   Spin= 1 of  2, K-point=  22 of   44 completed, Time:     0.04s. +
  +   Spin= 1 of  2, K-point=  23 of   44 completed, Time:     0.04s. +
  +   Spin= 1 of  2, K-point=  24 of   44 completed, Time:     0.04s. +
  +   Spin= 1 of  2, K-point=  25 of   44 completed, Time:     0.04s. +
  +   Spin= 1 of  2, K-point=  26 of   44 completed, Time:     0.04s. +
  +   Spin= 1 of  2, K-point=  27 of   44 completed, Time:     0.03s. +
  +   Spin= 1 of  2, K-point=  28 of   44 completed, Time:     0.03s. +
  +   Spin= 1 of  2, K-point=  29 of   44 completed, Time:     0.04s. +
  +   Spin= 1 of  2, K-point=  30 of   44 completed, Time:     0.04s. +
  +   Spin= 1 of  2, K-point=  31 of   44 completed, Time:     0.03s. +
  +   Spin= 1 of  2, K-point=  32 of   44 completed, Time:     0.04s. +
  +   Spin= 1 of  2, K-point=  33 of   44 completed, Time:     0.03s. +
  +   Spin= 1 of  2, K-point=  34 of   44 completed, Time:     0.03s. +
  +   Spin= 1 of  2, K-point=  35 of   44 completed, Time:     0.03s. +
  +   Spin= 1 of  2, K-point=  36 of   44 completed, Time:     0.03s. +
  +   Spin= 1 of  2, K-point=  37 of   44 completed, Time:     0.04s. +
  +   Spin= 1 of  2, K-point=  38 of   44 completed, Time:     0.04s. +
  +   Spin= 1 of  2, K-point=  39 of   44 completed, Time:     0.03s. +
  +   Spin= 1 of  2, K-point=  40 of   44 completed, Time:     0.03s. +
  +   Spin= 1 of  2, K-point=  41 of   44 completed, Time:     0.03s. +
  +   Spin= 1 of  2, K-point=  42 of   44 completed, Time:     0.03s. +
  +   Spin= 1 of  2, K-point=  43 of   44 completed, Time:     0.03s. +
  +   Spin= 1 of  2, K-point=  44 of   44 completed, Time:     0.03s. +
  +   Spin= 2 of  2, K-point=   1 of   44 completed, Time:     0.03s. +
  +   Spin= 2 of  2, K-point=   2 of   44 completed, Time:     0.04s. +
  +   Spin= 2 of  2, K-point=   3 of   44 completed, Time:     0.04s. +
  +   Spin= 2 of  2, K-point=   4 of   44 completed, Time:     0.04s. +
  +   Spin= 2 of  2, K-point=   5 of   44 completed, Time:     0.03s. +
  +   Spin= 2 of  2, K-point=   6 of   44 completed, Time:     0.04s. +
  +   Spin= 2 of  2, K-point=   7 of   44 completed, Time:     0.04s. +
  +   Spin= 2 of  2, K-point=   8 of   44 completed, Time:     0.03s. +
  +   Spin= 2 of  2, K-point=   9 of   44 completed, Time:     0.04s. +
  +   Spin= 2 of  2, K-point=  10 of   44 completed, Time:     0.03s. +
  +   Spin= 2 of  2, K-point=  11 of   44 completed, Time:     0.04s. +
  +   Spin= 2 of  2, K-point=  12 of   44 completed, Time:     0.03s. +
  +   Spin= 2 of  2, K-point=  13 of   44 completed, Time:     0.04s. +
  +   Spin= 2 of  2, K-point=  14 of   44 completed, Time:     0.03s. +
  +   Spin= 2 of  2, K-point=  15 of   44 completed, Time:     0.03s. +
  +   Spin= 2 of  2, K-point=  16 of   44 completed, Time:     0.04s. +
  +   Spin= 2 of  2, K-point=  17 of   44 completed, Time:     0.04s. +
  +   Spin= 2 of  2, K-point=  18 of   44 completed, Time:     0.03s. +
  +   Spin= 2 of  2, K-point=  19 of   44 completed, Time:     0.04s. +
  +   Spin= 2 of  2, K-point=  20 of   44 completed, Time:     0.04s. +
  +   Spin= 2 of  2, K-point=  21 of   44 completed, Time:     0.04s. +
  +   Spin= 2 of  2, K-point=  22 of   44 completed, Time:     0.03s. +
  +   Spin= 2 of  2, K-point=  23 of   44 completed, Time:     0.03s. +
  +   Spin= 2 of  2, K-point=  24 of   44 completed, Time:     0.04s. +
  +   Spin= 2 of  2, K-point=  25 of   44 completed, Time:     0.04s. +
  +   Spin= 2 of  2, K-point=  26 of   44 completed, Time:     0.03s. +
  +   Spin= 2 of  2, K-point=  27 of   44 completed, Time:     0.03s. +
  +   Spin= 2 of  2, K-point=  28 of   44 completed, Time:     0.03s. +
  +   Spin= 2 of  2, K-point=  29 of   44 completed, Time:     0.04s. +
  +   Spin= 2 of  2, K-point=  30 of   44 completed, Time:     0.03s. +
  +   Spin= 2 of  2, K-point=  31 of   44 completed, Time:     0.04s. +
  +   Spin= 2 of  2, K-point=  32 of   44 completed, Time:     0.03s. +
  +   Spin= 2 of  2, K-point=  33 of   44 completed, Time:     0.03s. +
  +   Spin= 2 of  2, K-point=  34 of   44 completed, Time:     0.03s. +
  +   Spin= 2 of  2, K-point=  35 of   44 completed, Time:     0.03s. +
  +   Spin= 2 of  2, K-point=  36 of   44 completed, Time:     0.04s. +
  +   Spin= 2 of  2, K-point=  37 of   44 completed, Time:     0.03s. +
  +   Spin= 2 of  2, K-point=  38 of   44 completed, Time:     0.04s. +
  +   Spin= 2 of  2, K-point=  39 of   44 completed, Time:     0.03s. +
  +   Spin= 2 of  2, K-point=  40 of   44 completed, Time:     0.04s. +
  +   Spin= 2 of  2, K-point=  41 of   44 completed, Time:     0.03s. +
  +   Spin= 2 of  2, K-point=  42 of   44 completed, Time:     0.04s. +
  +   Spin= 2 of  2, K-point=  43 of   44 completed, Time:     0.03s. +
  +   Spin= 2 of  2, K-point=  44 of   44 completed, Time:     0.03s. +
  +   Finished BS calculation on root process (waiting for others).   +
  +                                                                   +
  + ================================================================= +
  +                       Electronic energies                         +
  +                       -------------------                         +
  +                                                                   +
  +   Band number   Energy in eV                                      +
  + ================================================================= +
  +                                                                   +
  + ----------------------------------------------------------------- +
  +  Spin=1 kpt=    1 (  0.500000  0.250000  0.750000) kpt-group=  1  +
  + ----------------------------------------------------------------- +
  +                                                                   +
  +           1       -1.660803                                       +
  +           2       -1.654833                                       +
  +           3        2.070540                                       +
  +           4        2.074570                                       +
  +           5       10.410078                                       +
  +           6       10.413279                                       +
  + ----------------------------------------------------------------- +
  +  Spin=1 kpt=    2 (  0.500000  0.277778  0.722222) kpt-group=  1  +
  + ----------------------------------------------------------------- +
  +                                                                   +
  +           1       -2.033128                                       +
  +           2       -1.310580                                       +
  +           3        1.853730                                       +
  +           4        2.389149                                       +
  +           5       10.033014                                       +
  +           6       10.403815                                       +
  + ----------------------------------------------------------------- +
  +  Spin=1 kpt=    3 (  0.500000  0.305556  0.694444) kpt-group=  1  +
  + ----------------------------------------------------------------- +
  +                                                                   +
  +           1       -2.387156                                       +
  +           2       -1.028062                                       +
  +           3        1.787900                                       +
  +           4        2.769226                                       +
  +           5        9.704311                                       +
  +           6       10.059339                                       +
  + ----------------------------------------------------------------- +
  +  Spin=1 kpt=    4 (  0.500000  0.333333  0.666667) kpt-group=  1  +
  + ----------------------------------------------------------------- +
  +                                                                   +
  +           1       -2.711330                                       +
  +           2       -0.862033                                       +
  +           3        1.923694                                       +
  +           4        3.180025                                       +
  +           5        9.439428                                       +
  +           6        9.695349                                       +
  + ----------------------------------------------------------------- +
  +  Spin=1 kpt=    5 (  0.500000  0.361111  0.638889) kpt-group=  1  +
  + ----------------------------------------------------------------- +
  +                                                                   +
  +           1       -3.002525                                       +
  +           2       -0.816966                                       +
  +           3        2.265345                                       +
  +           4        3.593029                                       +
  +           5        9.259064                                       +
  +           6        9.355326                                       +
  + ----------------------------------------------------------------- +
  +  Spin=1 kpt=    6 (  0.500000  0.388889  0.611111) kpt-group=  1  +
  + ----------------------------------------------------------------- +
  +                                                                   +
  +           1       -3.239604                                       +
  +           2       -0.849590                                       +
  +           3        2.769604                                       +
  +           4        3.979805                                       +
  +           5        9.040127                                       +
  +           6        9.183543                                       +
  + ----------------------------------------------------------------- +
  +  Spin=1 kpt=    7 (  0.500000  0.416667  0.583333) kpt-group=  1  +
  + ----------------------------------------------------------------- +
  +                                                                   +
  +           1       -3.429877                                       +
  +           2       -0.914084                                       +
  +           3        3.368655                                       +
  +           4        4.309191                                       +
  +           5        8.716618                                       +
  +           6        9.196707                                       +
  + ----------------------------------------------------------------- +
  +  Spin=1 kpt=    8 (  0.500000  0.444444  0.555556) kpt-group=  1  +
  + ----------------------------------------------------------------- +
  +                                                                   +
  +           1       -3.552030                                       +
  +           2       -0.976127                                       +
  +           3        3.998387                                       +
  +           4        4.561066                                       +
  +           5        8.326443                                       +
  +           6        9.295653                                       +
  + ----------------------------------------------------------------- +
  +  Spin=1 kpt=    9 (  0.500000  0.472222  0.527778) kpt-group=  1  +
  + ----------------------------------------------------------------- +
  +                                                                   +
  +           1       -3.635506                                       +
  +           2       -1.021248                                       +
  +           3        4.533641                                       +
  +           4        4.713694                                       +
  +           5        7.898595                                       +
  +           6        9.400752                                       +
  + ----------------------------------------------------------------- +
  +  Spin=1 kpt=   10 (  0.500000  0.500000  0.500000) kpt-group=  1  +
  + ----------------------------------------------------------------- +
  +                                                                   +
  +           1       -3.665278                                       +
  +           2       -1.040488                                       +
  +           3        4.763692                                       +
  +           4        4.767792                                       +
  +           5        7.684138                                       +
  +           6        9.426867                                       +
  + ----------------------------------------------------------------- +
  +  Spin=1 kpt=   11 (  0.454545  0.454545  0.454545) kpt-group=  1  +
  + ----------------------------------------------------------------- +
  +                                                                   +
  +           1       -3.781668                                       +
  +           2       -0.872297                                       +
  +           3        4.778863                                       +
  +           4        4.782962                                       +
  +           5        7.701501                                       +
  +           6        9.443822                                       +
  + ----------------------------------------------------------------- +
  +  Spin=1 kpt=   12 (  0.409091  0.409091  0.409091) kpt-group=  1  +
  + ----------------------------------------------------------------- +
  +                                                                   +
  +           1       -4.058105                                       +
  +           2       -0.432636                                       +
  +           3        4.825969                                       +
  +           4        4.830056                                       +
  +           5        7.758657                                       +
  +           6        9.518201                                       +
  + ----------------------------------------------------------------- +
  +  Spin=1 kpt=   13 (  0.363636  0.363636  0.363636) kpt-group=  1  +
  + ----------------------------------------------------------------- +
  +                                                                   +
  +           1       -4.405746                                       +
  +           2        0.166536                                       +
  +           3        4.899890                                       +
  +           4        4.903987                                       +
  +           5        7.843495                                       +
  +           6        9.573904                                       +
  + ----------------------------------------------------------------- +
  +  Spin=1 kpt=   14 (  0.318182  0.318182  0.318182) kpt-group=  1  +
  + ----------------------------------------------------------------- +
  +                                                                   +
  +           1       -4.755069                                       +
  +           2        0.871193                                       +
  +           3        5.004608                                       +
  +           4        5.008717                                       +
  +           5        7.961261                                       +
  +           6        9.624289                                       +
  + ----------------------------------------------------------------- +
  +  Spin=1 kpt=   15 (  0.272727  0.272727  0.272727) kpt-group=  1  +
  + ----------------------------------------------------------------- +
  +                                                                   +
  +           1       -5.078158                                       +
  +           2        1.642668                                       +
  +           3        5.137054                                       +
  +           4        5.141188                                       +
  +           5        8.064279                                       +
  +           6        9.623225                                       +
  + ----------------------------------------------------------------- +
  +  Spin=1 kpt=   16 (  0.227273  0.227273  0.227273) kpt-group=  1  +
  + ----------------------------------------------------------------- +
  +                                                                   +
  +           1       -5.363876                                       +
  +           2        2.456168                                       +
  +           3        5.292961                                       +
  +           4        5.297159                                       +
  +           5        8.178565                                       +
  +           6        9.533735                                       +
  + ----------------------------------------------------------------- +
  +  Spin=1 kpt=   17 (  0.181818  0.181818  0.181818) kpt-group=  1  +
  + ----------------------------------------------------------------- +
  +                                                                   +
  +           1       -5.601651                                       +
  +           2        3.313591                                       +
  +           3        5.466984                                       +
  +           4        5.471287                                       +
  +           5        8.369439                                       +
  +           6        9.352997                                       +
  + ----------------------------------------------------------------- +
  +  Spin=1 kpt=   18 (  0.136364  0.136364  0.136364) kpt-group=  1  +
  + ----------------------------------------------------------------- +
  +                                                                   +
  +           1       -5.790457                                       +
  +           2        4.177195                                       +
  +           3        5.647496                                       +
  +           4        5.651959                                       +
  +           5        8.537222                                       +
  +           6        9.112660                                       +
  + ----------------------------------------------------------------- +
  +  Spin=1 kpt=   19 (  0.090909  0.090909  0.090909) kpt-group=  1  +
  + ----------------------------------------------------------------- +
  +                                                                   +
  +           1       -5.915377                                       +
  +           2        5.006006                                       +
  +           3        5.833177                                       +
  +           4        5.837803                                       +
  +           5        8.662448                                       +
  +           6        8.868456                                       +
  + ----------------------------------------------------------------- +
  +  Spin=1 kpt=   20 (  0.045455  0.045455  0.045455) kpt-group=  1  +
  + ----------------------------------------------------------------- +
  +                                                                   +
  +           1       -5.992471                                       +
  +           2        5.711854                                       +
  +           3        5.958585                                       +
  +           4        5.963425                                       +
  +           5        8.677239                                       +
  +           6        8.685655                                       +
  + ----------------------------------------------------------------- +
  +  Spin=1 kpt=   21 (  0.000000  0.000000  0.000000) kpt-group=  1  +
  + ----------------------------------------------------------------- +
  +                                                                   +
  +           1       -6.020166                                       +
  +           2        6.005579                                       +
  +           3        6.009252                                       +
  +           4        6.013480                                       +
  +           5        8.617370                                       +
  +           6        8.618360                                       +
  + ----------------------------------------------------------------- +
  +  Spin=1 kpt=   22 (  0.041667  0.000000  0.041667) kpt-group=  1  +
  + ----------------------------------------------------------------- +
  +                                                                   +
  +           1       -5.989116                                       +
  +           2        5.813549                                       +
  +           3        5.881663                                       +
  +           4        5.882514                                       +
  +           5        8.541654                                       +
  +           6        8.783676                                       +
  + ----------------------------------------------------------------- +
  +  Spin=1 kpt=   23 (  0.083333  0.000000  0.083333) kpt-group=  1  +
  + ----------------------------------------------------------------- +
  +                                                                   +
  +           1       -5.903656                                       +
  +           2        5.321675                                       +
  +           3        5.559902                                       +
  +           4        5.560632                                       +
  +           5        8.336589                                       +
  +           6        9.206617                                       +
  + ----------------------------------------------------------------- +
  +  Spin=1 kpt=   24 (  0.125000  0.000000  0.125000) kpt-group=  1  +
  + ----------------------------------------------------------------- +
  +                                                                   +
  +           1       -5.765771                                       +
  +           2        4.663413                                       +
  +           3        5.163356                                       +
  +           4        5.163985                                       +
  +           5        8.052995                                       +
  +           6        9.777009                                       +
  + ----------------------------------------------------------------- +
  +  Spin=1 kpt=   25 (  0.166667  0.000000  0.166667) kpt-group=  1  +
  + ----------------------------------------------------------------- +
  +                                                                   +
  +           1       -5.552005                                       +
  +           2        3.959956                                       +
  +           3        4.771706                                       +
  +           4        4.772338                                       +
  +           5        7.741001                                       +
  +           6       10.426796                                       +
  + ----------------------------------------------------------------- +
  +  Spin=1 kpt=   26 (  0.208333  0.000000  0.208333) kpt-group=  1  +
  + ----------------------------------------------------------------- +
  +                                                                   +
  +           1       -5.283124                                       +
  +           2        3.236624                                       +
  +           3        4.399317                                       +
  +           4        4.399971                                       +
  +           5        7.431213                                       +
  +           6        9.884338                                       +
  + ----------------------------------------------------------------- +
  +  Spin=1 kpt=   27 (  0.250000  0.000000  0.250000) kpt-group=  1  +
  + ----------------------------------------------------------------- +
  +                                                                   +
  +           1       -4.951129                                       +
  +           2        2.485926                                       +
  +           3        4.063799                                       +
  +           4        4.064459                                       +
  +           5        7.153972                                       +
  +           6        9.236031                                       +
  + ----------------------------------------------------------------- +
  +  Spin=1 kpt=   28 (  0.291667  0.000000  0.291667) kpt-group=  1  +
  + ----------------------------------------------------------------- +
  +                                                                   +
  +           1       -4.561863                                       +
  +           2        1.731140                                       +
  +           3        3.771993                                       +
  +           4        3.772660                                       +
  +           5        6.922039                                       +
  +           6        8.614766                                       +
  + ----------------------------------------------------------------- +
  +  Spin=1 kpt=   29 (  0.333333  0.000000  0.333333) kpt-group=  1  +
  + ----------------------------------------------------------------- +
  +                                                                   +
  +           1       -4.111895                                       +
  +           2        0.992739                                       +
  +           3        3.531090                                       +
  +           4        3.531785                                       +
  +           5        6.770998                                       +
  +           6        8.079117                                       +
  + ----------------------------------------------------------------- +
  +  Spin=1 kpt=   30 (  0.375000  0.000000  0.375000) kpt-group=  1  +
  + ----------------------------------------------------------------- +
  +                                                                   +
  +           1       -3.624000                                       +
  +           2        0.246884                                       +
  +           3        3.339285                                       +
  +           4        3.339985                                       +
  +           5        6.646543                                       +
  +           6        7.605547                                       +
  + ----------------------------------------------------------------- +
  +  Spin=1 kpt=   31 (  0.416667  0.000000  0.416667) kpt-group=  1  +
  + ----------------------------------------------------------------- +
  +                                                                   +
  +           1       -3.077394                                       +
  +           2       -0.479345                                       +
  +           3        3.201091                                       +
  +           4        3.201792                                       +
  +           5        6.611201                                       +
  +           6        7.231909                                       +
  + ----------------------------------------------------------------- +
  +  Spin=1 kpt=   32 (  0.458333  0.000000  0.458333) kpt-group=  1  +
  + ----------------------------------------------------------------- +
  +                                                                   +
  +           1       -2.485537                                       +
  +           2       -1.181041                                       +
  +           3        3.117744                                       +
  +           4        3.118446                                       +
  +           5        6.642357                                       +
  +           6        6.948749                                       +
  + ----------------------------------------------------------------- +
  +  Spin=1 kpt=   33 (  0.500000  0.000000  0.500000) kpt-group=  1  +
  + ----------------------------------------------------------------- +
  +                                                                   +
  +           1       -1.851971                                       +
  +           2       -1.851471                                       +
  +           3        3.089892                                       +
  +           4        3.090595                                       +
  +           5        6.752587                                       +
  +           6        6.754336                                       +
  + ----------------------------------------------------------------- +
  +  Spin=1 kpt=   34 (  0.500000  0.041667  0.541667) kpt-group=  1  +
  + ----------------------------------------------------------------- +
  +                                                                   +
  +           1       -1.841481                                       +
  +           2       -1.840394                                       +
  +           3        3.000287                                       +
  +           4        3.001180                                       +
  +           5        6.919852                                       +
  +           6        6.921582                                       +
  + ----------------------------------------------------------------- +
  +  Spin=1 kpt=   35 (  0.500000  0.083333  0.583333) kpt-group=  1  +
  + ----------------------------------------------------------------- +
  +                                                                   +
  +           1       -1.811758                                       +
  +           2       -1.809734                                       +
  +           3        2.779389                                       +
  +           4        2.780743                                       +
  +           5        7.375122                                       +
  +           6        7.376827                                       +
  + ----------------------------------------------------------------- +
  +  Spin=1 kpt=   36 (  0.500000  0.125000  0.625000) kpt-group=  1  +
  + ----------------------------------------------------------------- +
  +                                                                   +
  +           1       -1.761165                                       +
  +           2       -1.758159                                       +
  +           3        2.516792                                       +
  +           4        2.518747                                       +
  +           5        8.041153                                       +
  +           6        8.042800                                       +
  + ----------------------------------------------------------------- +
  +  Spin=1 kpt=   37 (  0.500000  0.166667  0.666667) kpt-group=  1  +
  + ----------------------------------------------------------------- +
  +                                                                   +
  +           1       -1.712615                                       +
  +           2       -1.708576                                       +
  +           3        2.283771                                       +
  +           4        2.286434                                       +
  +           5        8.844985                                       +
  +           6        8.846657                                       +
  + ----------------------------------------------------------------- +
  +  Spin=1 kpt=   38 (  0.500000  0.208333  0.708333) kpt-group=  1  +
  + ----------------------------------------------------------------- +
  +                                                                   +
  +           1       -1.678725                                       +
  +           2       -1.673635                                       +
  +           3        2.125654                                       +
  +           4        2.129048                                       +
  +           5        9.717105                                       +
  +           6        9.718879                                       +
  + ----------------------------------------------------------------- +
  +  Spin=1 kpt=   39 (  0.500000  0.250000  0.750000) kpt-group=  1  +
  + ----------------------------------------------------------------- +
  +                                                                   +
  +           1       -1.660803                                       +
  +           2       -1.654833                                       +
  +           3        2.070540                                       +
  +           4        2.074570                                       +
  +           5       10.410078                                       +
  +           6       10.413279                                       +
  + ----------------------------------------------------------------- +
  +  Spin=1 kpt=   40 (  0.475000  0.275000  0.750000) kpt-group=  1  +
  + ----------------------------------------------------------------- +
  +                                                                   +
  +           1       -1.873374                                       +
  +           2       -1.463545                                       +
  +           3        1.912705                                       +
  +           4        2.309751                                       +
  +           5        9.689575                                       +
  +           6       10.463403                                       +
  + ----------------------------------------------------------------- +
  +  Spin=1 kpt=   41 (  0.450000  0.300000  0.750000) kpt-group=  1  +
  + ----------------------------------------------------------------- +
  +                                                                   +
  +           1       -2.036308                                       +
  +           2       -1.342799                                       +
  +           3        1.784622                                       +
  +           4        2.654232                                       +
  +           5        8.815532                                       +
  +           6       10.401158                                       +
  + ----------------------------------------------------------------- +
  +  Spin=1 kpt=   42 (  0.425000  0.325000  0.750000) kpt-group=  1  +
  + ----------------------------------------------------------------- +
  +                                                                   +
  +           1       -2.152563                                       +
  +           2       -1.276570                                       +
  +           3        1.691606                                       +
  +           4        3.045803                                       +
  +           5        8.048351                                       +
  +           6       10.334416                                       +
  + ----------------------------------------------------------------- +
  +  Spin=1 kpt=   43 (  0.400000  0.350000  0.750000) kpt-group=  1  +
  + ----------------------------------------------------------------- +
  +                                                                   +
  +           1       -2.237005                                       +
  +           2       -1.245198                                       +
  +           3        1.635087                                       +
  +           4        3.381380                                       +
  +           5        7.483258                                       +
  +           6       10.277752                                       +
  + ----------------------------------------------------------------- +
  +  Spin=1 kpt=   44 (  0.375000  0.375000  0.750000) kpt-group=  1  +
  + ----------------------------------------------------------------- +
  +                                                                   +
  +           1       -2.263696                                       +
  +           2       -1.237671                                       +
  +           3        1.615061                                       +
  +           4        3.520761                                       +
  +           5        7.271323                                       +
  +           6       10.259364                                       +
  + ----------------------------------------------------------------- +
  +  Spin=2 kpt=    1 (  0.500000  0.250000  0.750000) kpt-group=  1  +
  + ----------------------------------------------------------------- +
  +                                                                   +
  +           1       -1.163182                                       +
  +           2       -1.157869                                       +
  +           3        2.549188                                       +
  +           4        2.552348                                       +
  +           5       10.882353                                       +
  +           6       10.885206                                       +
  + ----------------------------------------------------------------- +
  +  Spin=2 kpt=    2 (  0.500000  0.277778  0.722222) kpt-group=  1  +
  + ----------------------------------------------------------------- +
  +                                                                   +
  +           1       -1.536384                                       +
  +           2       -0.812950                                       +
  +           3        2.330755                                       +
  +           4        2.869266                                       +
  +           5       10.505171                                       +
  +           6       10.882243                                       +
  + ----------------------------------------------------------------- +
  +  Spin=2 kpt=    3 (  0.500000  0.305556  0.694444) kpt-group=  1  +
  + ----------------------------------------------------------------- +
  +                                                                   +
  +           1       -1.890890                                       +
  +           2       -0.531448                                       +
  +           3        2.265401                                       +
  +           4        3.251422                                       +
  +           5       10.176276                                       +
  +           6       10.540957                                       +
  + ----------------------------------------------------------------- +
  +  Spin=2 kpt=    4 (  0.500000  0.333333  0.666667) kpt-group=  1  +
  + ----------------------------------------------------------------- +
  +                                                                   +
  +           1       -2.215497                                       +
  +           2       -0.367932                                       +
  +           3        2.403461                                       +
  +           4        3.664636                                       +
  +           5        9.910972                                       +
  +           6       10.177973                                       +
  + ----------------------------------------------------------------- +
  +  Spin=2 kpt=    5 (  0.500000  0.361111  0.638889) kpt-group=  1  +
  + ----------------------------------------------------------------- +
  +                                                                   +
  +           1       -2.506910                                       +
  +           2       -0.326160                                       +
  +           3        2.748428                                       +
  +           4        4.080289                                       +
  +           5        9.730263                                       +
  +           6        9.838716                                       +
  + ----------------------------------------------------------------- +
  +  Spin=2 kpt=    6 (  0.500000  0.388889  0.611111) kpt-group=  1  +
  + ----------------------------------------------------------------- +
  +                                                                   +
  +           1       -2.744285                                       +
  +           2       -0.361658                                       +
  +           3        3.255938                                       +
  +           4        4.469809                                       +
  +           5        9.524686                                       +
  +           6        9.654569                                       +
  + ----------------------------------------------------------------- +
  +  Spin=2 kpt=    7 (  0.500000  0.416667  0.583333) kpt-group=  1  +
  + ----------------------------------------------------------------- +
  +                                                                   +
  +           1       -2.934736                                       +
  +           2       -0.428201                                       +
  +           3        3.857801                                       +
  +           4        4.801737                                       +
  +           5        9.203054                                       +
  +           6        9.668236                                       +
  + ----------------------------------------------------------------- +
  +  Spin=2 kpt=    8 (  0.500000  0.444444  0.555556) kpt-group=  1  +
  + ----------------------------------------------------------------- +
  +                                                                   +
  +           1       -3.057136                                       +
  +           2       -0.491568                                       +
  +           3        4.490060                                       +
  +           4        5.055611                                       +
  +           5        8.814985                                       +
  +           6        9.768562                                       +
  + ----------------------------------------------------------------- +
  +  Spin=2 kpt=    9 (  0.500000  0.472222  0.527778) kpt-group=  1  +
  + ----------------------------------------------------------------- +
  +                                                                   +
  +           1       -3.140689                                       +
  +           2       -0.537377                                       +
  +           3        5.027672                                       +
  +           4        5.209435                                       +
  +           5        8.387486                                       +
  +           6        9.875500                                       +
  + ----------------------------------------------------------------- +
  +  Spin=2 kpt=   10 (  0.500000  0.500000  0.500000) kpt-group=  1  +
  + ----------------------------------------------------------------- +
  +                                                                   +
  +           1       -3.170463                                       +
  +           2       -0.556773                                       +
  +           3        5.260697                                       +
  +           4        5.262159                                       +
  +           5        8.172492                                       +
  +           6        9.903564                                       +
  + ----------------------------------------------------------------- +
  +  Spin=2 kpt=   11 (  0.454545  0.454545  0.454545) kpt-group=  1  +
  + ----------------------------------------------------------------- +
  +                                                                   +
  +           1       -3.287611                                       +
  +           2       -0.387752                                       +
  +           3        5.275853                                       +
  +           4        5.277313                                       +
  +           5        8.189846                                       +
  +           6        9.920329                                       +
  + ----------------------------------------------------------------- +
  +  Spin=2 kpt=   12 (  0.409091  0.409091  0.409091) kpt-group=  1  +
  + ----------------------------------------------------------------- +
  +                                                                   +
  +           1       -3.565556                                       +
  +           2        0.053504                                       +
  +           3        5.322975                                       +
  +           4        5.324437                                       +
  +           5        8.246872                                       +
  +           6        9.995696                                       +
  + ----------------------------------------------------------------- +
  +  Spin=2 kpt=   13 (  0.363636  0.363636  0.363636) kpt-group=  1  +
  + ----------------------------------------------------------------- +
  +                                                                   +
  +           1       -3.914440                                       +
  +           2        0.654325                                       +
  +           3        5.396842                                       +
  +           4        5.398303                                       +
  +           5        8.331707                                       +
  +           6       10.052977                                       +
  + ----------------------------------------------------------------- +
  +  Spin=2 kpt=   14 (  0.318182  0.318182  0.318182) kpt-group=  1  +
  + ----------------------------------------------------------------- +
  +                                                                   +
  +           1       -4.264751                                       +
  +           2        1.360491                                       +
  +           3        5.501543                                       +
  +           4        5.503006                                       +
  +           5        8.449498                                       +
  +           6       10.103409                                       +
  + ----------------------------------------------------------------- +
  +  Spin=2 kpt=   15 (  0.272727  0.272727  0.272727) kpt-group=  1  +
  + ----------------------------------------------------------------- +
  +                                                                   +
  +           1       -4.588582                                       +
  +           2        2.133385                                       +
  +           3        5.634026                                       +
  +           4        5.635497                                       +
  +           5        8.552494                                       +
  +           6       10.107742                                       +
  + ----------------------------------------------------------------- +
  +  Spin=2 kpt=   16 (  0.227273  0.227273  0.227273) kpt-group=  1  +
  + ----------------------------------------------------------------- +
  +                                                                   +
  +           1       -4.874849                                       +
  +           2        2.948334                                       +
  +           3        5.790073                                       +
  +           4        5.791566                                       +
  +           5        8.667253                                       +
  +           6       10.020376                                       +
  + ----------------------------------------------------------------- +
  +  Spin=2 kpt=   17 (  0.181818  0.181818  0.181818) kpt-group=  1  +
  + ----------------------------------------------------------------- +
  +                                                                   +
  +           1       -5.113039                                       +
  +           2        3.807074                                       +
  +           3        5.964374                                       +
  +           4        5.965911                                       +
  +           5        8.858347                                       +
  +           6        9.841286                                       +
  + ----------------------------------------------------------------- +
  +  Spin=2 kpt=   18 (  0.136364  0.136364  0.136364) kpt-group=  1  +
  + ----------------------------------------------------------------- +
  +                                                                   +
  +           1       -5.302151                                       +
  +           2        4.672048                                       +
  +           3        6.145336                                       +
  +           4        6.146943                                       +
  +           5        9.026305                                       +
  +           6        9.602458                                       +
  + ----------------------------------------------------------------- +
  +  Spin=2 kpt=   19 (  0.090909  0.090909  0.090909) kpt-group=  1  +
  + ----------------------------------------------------------------- +
  +                                                                   +
  +           1       -5.427421                                       +
  +           2        5.502124                                       +
  +           3        6.331685                                       +
  +           4        6.333388                                       +
  +           5        9.150999                                       +
  +           6        9.356344                                       +
  + ----------------------------------------------------------------- +
  +  Spin=2 kpt=   20 (  0.045455  0.045455  0.045455) kpt-group=  1  +
  + ----------------------------------------------------------------- +
  +                                                                   +
  +           1       -5.504695                                       +
  +           2        6.209079                                       +
  +           3        6.457697                                       +
  +           4        6.459504                                       +
  +           5        9.164128                                       +
  +           6        9.172993                                       +
  + ----------------------------------------------------------------- +
  +  Spin=2 kpt=   21 (  0.000000  0.000000  0.000000) kpt-group=  1  +
  + ----------------------------------------------------------------- +
  +                                                                   +
  +           1       -5.532428                                       +
  +           2        6.504924                                       +
  +           3        6.506824                                       +
  +           4        6.509976                                       +
  +           5        9.105046                                       +
  +           6        9.106416                                       +
  + ----------------------------------------------------------------- +
  +  Spin=2 kpt=   22 (  0.041667  0.000000  0.041667) kpt-group=  1  +
  + ----------------------------------------------------------------- +
  +                                                                   +
  +           1       -5.501335                                       +
  +           2        6.312154                                       +
  +           3        6.377274                                       +
  +           4        6.380499                                       +
  +           5        9.028111                                       +
  +           6        9.271303                                       +
  + ----------------------------------------------------------------- +
  +  Spin=2 kpt=   23 (  0.083333  0.000000  0.083333) kpt-group=  1  +
  + ----------------------------------------------------------------- +
  +                                                                   +
  +           1       -5.415651                                       +
  +           2        5.821373                                       +
  +           3        6.053793                                       +
  +           4        6.056755                                       +
  +           5        8.820669                                       +
  +           6        9.697374                                       +
  + ----------------------------------------------------------------- +
  +  Spin=2 kpt=   24 (  0.125000  0.000000  0.125000) kpt-group=  1  +
  + ----------------------------------------------------------------- +
  +                                                                   +
  +           1       -5.277343                                       +
  +           2        5.164022                                       +
  +           3        5.655628                                       +
  +           4        5.658317                                       +
  +           5        8.534240                                       +
  +           6       10.269468                                       +
  + ----------------------------------------------------------------- +
  +  Spin=2 kpt=   25 (  0.166667  0.000000  0.166667) kpt-group=  1  +
  + ----------------------------------------------------------------- +
  +                                                                   +
  +           1       -5.063246                                       +
  +           2        4.461091                                       +
  +           3        5.262729                                       +
  +           4        5.265251                                       +
  +           5        8.219550                                       +
  +           6       10.913467                                       +
  + ----------------------------------------------------------------- +
  +  Spin=2 kpt=   26 (  0.208333  0.000000  0.208333) kpt-group=  1  +
  + ----------------------------------------------------------------- +
  +                                                                   +
  +           1       -4.793861                                       +
  +           2        3.737867                                       +
  +           3        4.889290                                       +
  +           4        4.891717                                       +
  +           5        7.907449                                       +
  +           6       10.357733                                       +
  + ----------------------------------------------------------------- +
  +  Spin=2 kpt=   27 (  0.250000  0.000000  0.250000) kpt-group=  1  +
  + ----------------------------------------------------------------- +
  +                                                                   +
  +           1       -4.461329                                       +
  +           2        2.986956                                       +
  +           3        4.552976                                       +
  +           4        4.555317                                       +
  +           5        7.628151                                       +
  +           6        9.703727                                       +
  + ----------------------------------------------------------------- +
  +  Spin=2 kpt=   28 (  0.291667  0.000000  0.291667) kpt-group=  1  +
  + ----------------------------------------------------------------- +
  +                                                                   +
  +           1       -4.071421                                       +
  +           2        2.231617                                       +
  +           3        4.260538                                       +
  +           4        4.262816                                       +
  +           5        7.394419                                       +
  +           6        9.079847                                       +
  + ----------------------------------------------------------------- +
  +  Spin=2 kpt=   29 (  0.333333  0.000000  0.333333) kpt-group=  1  +
  + ----------------------------------------------------------------- +
  +                                                                   +
  +           1       -3.620855                                       +
  +           2        1.492357                                       +
  +           3        4.019159                                       +
  +           4        4.021387                                       +
  +           5        7.241712                                       +
  +           6        8.543025                                       +
  + ----------------------------------------------------------------- +
  +  Spin=2 kpt=   30 (  0.375000  0.000000  0.375000) kpt-group=  1  +
  + ----------------------------------------------------------------- +
  +                                                                   +
  +           1       -3.132079                                       +
  +           2        0.745614                                       +
  +           3        3.827014                                       +
  +           4        3.829209                                       +
  +           5        7.115813                                       +
  +           6        8.069353                                       +
  + ----------------------------------------------------------------- +
  +  Spin=2 kpt=   31 (  0.416667  0.000000  0.416667) kpt-group=  1  +
  + ----------------------------------------------------------------- +
  +                                                                   +
  +           1       -2.584540                                       +
  +           2        0.018208                                       +
  +           3        3.688563                                       +
  +           4        3.690735                                       +
  +           5        7.079137                                       +
  +           6        7.696024                                       +
  + ----------------------------------------------------------------- +
  +  Spin=2 kpt=   32 (  0.458333  0.000000  0.458333) kpt-group=  1  +
  + ----------------------------------------------------------------- +
  +                                                                   +
  +           1       -1.991603                                       +
  +           2       -0.684717                                       +
  +           3        3.605064                                       +
  +           4        3.607223                                       +
  +           5        7.109099                                       +
  +           6        7.413533                                       +
  + ----------------------------------------------------------------- +
  +  Spin=2 kpt=   33 (  0.500000  0.000000  0.500000) kpt-group=  1  +
  + ----------------------------------------------------------------- +
  +                                                                   +
  +           1       -1.358380                                       +
  +           2       -1.354859                                       +
  +           3        3.577163                                       +
  +           4        3.579317                                       +
  +           5        7.217657                                       +
  +           6        7.220628                                       +
  + ----------------------------------------------------------------- +
  +  Spin=2 kpt=   34 (  0.500000  0.041667  0.541667) kpt-group=  1  +
  + ----------------------------------------------------------------- +
  +                                                                   +
  +           1       -1.347508                                       +
  +           2       -1.343915                                       +
  +           3        3.486507                                       +
  +           4        3.488735                                       +
  +           5        7.386031                                       +
  +           6        7.388978                                       +
  + ----------------------------------------------------------------- +
  +  Spin=2 kpt=   35 (  0.500000  0.083333  0.583333) kpt-group=  1  +
  + ----------------------------------------------------------------- +
  +                                                                   +
  +           1       -1.317064                                       +
  +           2       -1.313260                                       +
  +           3        3.263337                                       +
  +           4        3.265740                                       +
  +           5        7.843731                                       +
  +           6        7.846634                                       +
  + ----------------------------------------------------------------- +
  +  Spin=2 kpt=   36 (  0.500000  0.125000  0.625000) kpt-group=  1  +
  + ----------------------------------------------------------------- +
  +                                                                   +
  +           1       -1.265664                                       +
  +           2       -1.261552                                       +
  +           3        2.998446                                       +
  +           4        3.001070                                       +
  +           5        8.512187                                       +
  +           6        8.515017                                       +
  + ----------------------------------------------------------------- +
  +  Spin=2 kpt=   37 (  0.500000  0.166667  0.666667) kpt-group=  1  +
  + ----------------------------------------------------------------- +
  +                                                                   +
  +           1       -1.216209                                       +
  +           2       -1.211672                                       +
  +           3        2.763652                                       +
  +           4        2.766517                                       +
  +           5        9.318133                                       +
  +           6        9.320948                                       +
  + ----------------------------------------------------------------- +
  +  Spin=2 kpt=   38 (  0.500000  0.208333  0.708333) kpt-group=  1  +
  + ----------------------------------------------------------------- +
  +                                                                   +
  +           1       -1.181513                                       +
  +           2       -1.176538                                       +
  +           3        2.604493                                       +
  +           4        2.607557                                       +
  +           5       10.191489                                       +
  +           6       10.194274                                       +
  + ----------------------------------------------------------------- +
  +  Spin=2 kpt=   39 (  0.500000  0.250000  0.750000) kpt-group=  1  +
  + ----------------------------------------------------------------- +
  +                                                                   +
  +           1       -1.163182                                       +
  +           2       -1.157869                                       +
  +           3        2.549188                                       +
  +           4        2.552348                                       +
  +           5       10.882353                                       +
  +           6       10.885206                                       +
  + ----------------------------------------------------------------- +
  +  Spin=2 kpt=   40 (  0.475000  0.275000  0.750000) kpt-group=  1  +
  + ----------------------------------------------------------------- +
  +                                                                   +
  +           1       -1.375381                                       +
  +           2       -0.967248                                       +
  +           3        2.389351                                       +
  +           4        2.790302                                       +
  +           5       10.164547                                       +
  +           6       10.936991                                       +
  + ----------------------------------------------------------------- +
  +  Spin=2 kpt=   41 (  0.450000  0.300000  0.750000) kpt-group=  1  +
  + ----------------------------------------------------------------- +
  +                                                                   +
  +           1       -1.538396                                       +
  +           2       -0.847176                                       +
  +           3        2.260757                                       +
  +           4        3.137196                                       +
  +           5        9.289427                                       +
  +           6       10.876064                                       +
  + ----------------------------------------------------------------- +
  +  Spin=2 kpt=   42 (  0.425000  0.325000  0.750000) kpt-group=  1  +
  + ----------------------------------------------------------------- +
  +                                                                   +
  +           1       -1.654712                                       +
  +           2       -0.781674                                       +
  +           3        2.167388                                       +
  +           4        3.531867                                       +
  +           5        8.519871                                       +
  +           6       10.809830                                       +
  + ----------------------------------------------------------------- +
  +  Spin=2 kpt=   43 (  0.400000  0.350000  0.750000) kpt-group=  1  +
  + ----------------------------------------------------------------- +
  +                                                                   +
  +           1       -1.739022                                       +
  +           2       -0.750851                                       +
  +           3        2.110664                                       +
  +           4        3.870647                                       +
  +           5        7.952036                                       +
  +           6       10.753493                                       +
  + ----------------------------------------------------------------- +
  +  Spin=2 kpt=   44 (  0.375000  0.375000  0.750000) kpt-group=  1  +
  + ----------------------------------------------------------------- +
  +                                                                   +
  +           1       -1.765654                                       +
  +           2       -0.743501                                       +
  +           3        2.090534                                       +
  +           4        4.011589                                       +
  +           5        7.738692                                       +
  +           6       10.735149                                       +
  =====================================================================

Writing model to Si2.orbitals

 ***************** Symmetrised Forces *****************
 *                                                    *
 *            Cartesian components (eV/A)             *
 * -------------------------------------------------- *
 *                   x            y            z      *
 *                                                    *
 * Si        1      0.00000      0.00000     -0.00000 *
 * Si        2      0.00000      0.00000      0.00000 *
 *                                                    *
 ******************************************************

 Pseudo atomic calculation performed for Si 3s2 3p2

 Converged in 16 iterations to a total energy of -102.0354 eV

Charge spilling parameter for spin component 1 = 3.46%
Charge spilling parameter for spin component 2 = 0.81%

     Atomic Populations (Mulliken)
     -----------------------------
Species   Ion     s      p      d      f     Total  Charge (e)  Spin (hbar/2)
===========================================================================
  Si       1     1.41   2.59   0.00   0.00   4.00     0.00        0.50
  Si       2     1.41   2.59   0.00   0.00   4.00     0.00        0.50
===========================================================================

            Bond              Population        Spin       Length (A)
======================================================================
         Si 1 -- Si 2              1.79        -0.42          2.33434
======================================================================


Writing analysis data to Si2.castep_bin

Writing model to Si2.check
 
 A BibTeX formatted list of references used in this run has been written to 
 Si2.bib
 
Initialisation time =      0.23 s
Calculation time    =      7.36 s
Finalisation time   =      0.01 s
Total time          =      7.60 s
