 +-------------------------------------------------+
 |                                                 |
 |      CCC   AA    SSS  TTTTT  EEEEE  PPPP        |
 |     C     A  A  S       T    E      P   P       |
 |     C     AAAA   SS     T    EEE    PPPP        |
 |     C     A  A     S    T    E      P           |
 |      CCC  A  A  SSS     T    EEEEE  P           |
 |                                                 |
 +-------------------------------------------------+
 |                                                 |
 | Welcome to Academic Release CASTEP version 16.1 |          
 | Ab Initio Total Energy Program                  |
 |                                                 |
 | Authors:                                        |
 | M. Segall, M. Probert, C. Pickard, P. Hasnip,   |
 | S. Clark, K. Refson, J. R. Yates, M. Payne      |
 |                                                 |
 | Contributors:                                   |
 | P. Lindan, P. Haynes, J. White, V. Milman,      |
 | N. Govind, M. Gibson, P. Tulip, V. Cocula,      |
 | B. Montanari, D. Quigley, M. Glover,            |
 | L. Bernasconi, A. Perlov, M. Plummer,           |
 | E. McNellis, J. Meyer, J. Gale, D. Jochym       |
 | J. Aarons, B. Walker, R. Gillen, D. Jones       |
 | T. Green, I. J. Bush, C. J. Armstrong,          |
 | E. J. Higgins, E. L. Brown, M. S. McFly         |
 |                                                 |
 | Copyright (c) 2000 - 2015                       |
 |                                                 |
 |     Distributed under the terms of an           |
 |     Agreement between the United Kingdom        |
 |     Car-Parrinello (UKCP) Consortium,           |
 |     Daresbury Laboratory and Accelrys, Inc.     |
 |                                                 |
 | Please cite                                     |
 |                                                 |
 |     "First principles methods using CASTEP"     |
 |                                                 |
 |         Zeitschrift fuer Kristallographie       |
 |           220(5-6) pp. 567-570 (2005)           |
 |                                                 |
 | S. J. Clark, M. D. Segall, C. J. Pickard,       |
 | P. J. Hasnip, M. J. Probert, K. Refson,         |
 | M. C. Payne                                     |
 |                                                 |
 |       in all publications arising from          |
 |              your use of CASTEP                 |
 |                                                 |
 +-------------------------------------------------+


 Compiled for darwin_x86_64_gfortran5.0 on Fri, 19 Feb 2016 13:44:46 +0000
 from code version Version unavailable
 Compiler: GNU Fortran 5.3.0; Optimisation: intermediate
 MATHLIBS: default (LAPACK version 3.2.1)
 FFT Lib : default
 Fundamental constants values: CODATA 2010

 Run started: Mon, 22 Feb 2016 16:21:21 +0000

 ******************************* User Parameters *******************************
iprint                : 2             # verbosity control (I)
task                  : bandstructure # type of calculation (S)
writeformatteddensity : T             # formatted density on/off (L)
optstrategy           : speed         # optimization strategy (S)
xcfunctional          : LDA           # exchange-correlation functional (S)
basisprecision        : MEDIUM        # accuracy of basis set (S)
spinpolarized         : F             # spin polarized (L)
fixoccupancy          : T             # treat system as an insulator (L)
numdumpcycles         : 0             # frequency of wavefunction dumps (I)

 *******************************************************************************
  

 Pseudo atomic calculation performed for Si 3s2 3p2

 Converged in 16 iterations to a total energy of -102.0354 eV

Initialising basis set.

Standard grid dimensions:  12  12  12
Fine grid dimensions:      12  12  12

Plane wave load balancing: max    122 min    113 average    117
True cut-off energy of basis :   4.407
 Calculation not parallelised.

 ************************************ Title ************************************
 

 ***************************** General Parameters ******************************
  
 output verbosity                               : verbose (2)
 write checkpoint data to                       : Si2.check
 type of calculation                            : band structure
 stress calculation                             : off
 density difference calculation                 : off
 electron localisation func (ELF) calculation   : off
 Hirshfeld analysis                             : off
 unlimited duration calculation
 timing information                             : on
 memory usage estimate                          : on
 write final potential to formatted file        : off
 write final density to formatted file          : on
 write BibTeX reference list                    : on
 write OTFG pseudopotential files               : on
 checkpoint writing                             : both castep_bin and check files
  
 output         length unit                     : A
 output           mass unit                     : amu
 output           time unit                     : ps
 output         charge unit                     : e
 output           spin unit                     : hbar/2
 output         energy unit                     : eV
 output          force unit                     : eV/A
 output       velocity unit                     : A/ps
 output       pressure unit                     : GPa
 output     inv_length unit                     : 1/A
 output      frequency unit                     : cm-1
 output force constant unit                     : eV/A**2
 output         volume unit                     : A**3
 output   IR intensity unit                     : (D/A)**2/amu
 output         dipole unit                     : D
 output         efield unit                     : eV/A/e
 output        entropy unit                     : J/mol/K
  
 wavefunctions paging                           : none
 random number generator seed                   : randomised (162121539)
 data distribution                              : optimal for this architecture
 optimization strategy                          : maximize speed(+++)

 *********************** Exchange-Correlation Parameters ***********************
  
 using functional                               : Local Density Approximation
 relativistic treatment                         : Koelling-Harmon
 DFT+D: Semi-empirical dispersion correction    : off

 ************************* Pseudopotential Parameters **************************
  
 pseudopotential representation                 : reciprocal space
 <beta|phi> representation                      : reciprocal space
 spin-orbit coupling                            : off

 **************************** Basis Set Parameters *****************************
  
 basis set accuracy                             : MEDIUM
 plane wave basis set cut-off                   :   120.0000   eV
 size of standard grid                          :     1.7500
 size of   fine   gmax                          :     9.8213   1/A
 finite basis set correction                    : none

 **************************** Electronic Parameters ****************************
  
 number of  electrons                           :  8.000    
 net charge of system                           :  0.000    
 treating system as non-spin-polarized
 number of bands                                :          4

 ********************* Electronic Minimization Parameters **********************
  
 Method: Treating system as non-metallic,
         and number of  SD  steps               :          1
         and number of  CG  steps               :          4
  
 total energy / atom convergence tol.           : 0.1000E-04   eV
 max force / atom convergence tol.              : ignored
 convergence tolerance window                   :          3   cycles
 max. number of SCF cycles                      :         30
 periodic dipole correction                     : NONE

 *********************** Population Analysis Parameters ************************
  
 Population analysis with cutoff                :  3.000       A

 ************************** Band Structure Parameters **************************
  
 max. number of iterations                      :         60
 max. CG steps in BS calc                       :         25
 number of bands / k-point                      :         14
 band convergence tolerance                     : 0.1000E-05   eV
 write orbitals file                            : on

 *******************************************************************************
  

                           -------------------------------
                                      Unit Cell
                           -------------------------------
        Real Lattice(A)                      Reciprocal Lattice(1/A)
   2.6954645   2.6954645   0.0000000        1.1655107   1.1655107  -1.1655107
   2.6954645   0.0000000   2.6954645        1.1655107  -1.1655107   1.1655107
   0.0000000   2.6954645   2.6954645       -1.1655107   1.1655107   1.1655107

                       Lattice parameters(A)       Cell Angles
                    a =    3.811962          alpha =   60.000000
                    b =    3.811962          beta  =   60.000000
                    c =    3.811962          gamma =   60.000000

                       Current cell volume =   39.167950       A**3

                           -------------------------------
                                     Cell Contents
                           -------------------------------
                         Total number of ions in cell =    2
                      Total number of species in cell =    1
                        Max number of any one species =    2

            xxxxxxxxxxxxxxxxxxxxxxxxxxxxxxxxxxxxxxxxxxxxxxxxxxxxxxxxxxxx
            x  Element    Atom        Fractional coordinates of atoms  x
            x            Number           u          v          w      x
            x----------------------------------------------------------x
            x  Si           1         0.000000   0.000000   0.000000   x 
            x  Si           2         0.250000   0.250000   0.250000   x 
            xxxxxxxxxxxxxxxxxxxxxxxxxxxxxxxxxxxxxxxxxxxxxxxxxxxxxxxxxxxx


                         No user defined ionic velocities

                           -------------------------------
                                   Details of Species
                           -------------------------------

                               Mass of species in AMU
                                    Si   28.0855000

                          Electric Quadrupole Moment (Barn)
                                    Si    1.0000000 No Isotope Defined

                          Files used for pseudopotentials:
                                    Si Si_00.usp

                           -------------------------------
                              k-Points For BZ Sampling
                           -------------------------------
                       MP grid size for SCF calculation is  4  4  4
                            with an offset of   0.000  0.000  0.000
                       Number of kpoints used =            10

             +++++++++++++++++++++++++++++++++++++++++++++++++++++++
             +  Number       Fractional coordinates        Weight  +
             +-----------------------------------------------------+
             +     1  -0.375000  -0.125000  -0.375000   0.0937500  +
             +     2  -0.375000   0.375000   0.375000   0.0937500  +
             +     3  -0.125000  -0.375000  -0.125000   0.0937500  +
             +     4  -0.125000   0.375000   0.375000   0.0937500  +
             +     5   0.125000  -0.375000  -0.125000   0.1875000  +
             +     6   0.125000  -0.375000   0.125000   0.0937500  +
             +     7   0.125000  -0.125000  -0.125000   0.0937500  +
             +     8   0.125000   0.125000   0.125000   0.0312500  +
             +     9   0.375000  -0.375000   0.125000   0.1875000  +
             +    10   0.375000   0.375000   0.375000   0.0312500  +
             +++++++++++++++++++++++++++++++++++++++++++++++++++++++

                           -------------------------------
                               Symmetry and Constraints
                           -------------------------------

                      Maximum deviation from symmetry =  0.00000         ANG

                      Number of symmetry operations   =          48
                      Number of ionic constraints     =           3
                      Point group of crystal =    32: Oh, m-3m, 4/m -3 2/m
                      Space group of crystal =   227: Fd-3m, F 4d 2 3 -1d

                    1 rotation    
                 (   1.00000000000   0.00000000000   0.00000000000 )
                 (   0.00000000000   1.00000000000   0.00000000000 )
                 (   0.00000000000   0.00000000000   1.00000000000 )
                    1 displacement
                 (   0.00000000000   0.00000000000  -0.00000000000 )
                      symmetry related atoms: 
             Si:    1    2

                    2 rotation    
                 (   0.00000000000   0.00000000000   1.00000000000 )
                 (   0.00000000000   1.00000000000   0.00000000000 )
                 (  -1.00000000000   0.00000000000   0.00000000000 )
                    2 displacement
                 (   0.25000000000   0.25000000000   0.25000000000 )
                      symmetry related atoms: 
             Si:    2    1

                    3 rotation    
                 (  -1.00000000000   0.00000000000   0.00000000000 )
                 (   0.00000000000   1.00000000000   0.00000000000 )
                 (   0.00000000000   0.00000000000  -1.00000000000 )
                    3 displacement
                 (   0.00000000000   0.00000000000  -0.00000000000 )
                      symmetry related atoms: 
             Si:    1    2

                    4 rotation    
                 (   0.00000000000   0.00000000000  -1.00000000000 )
                 (   0.00000000000   1.00000000000   0.00000000000 )
                 (   1.00000000000   0.00000000000   0.00000000000 )
                    4 displacement
                 (   0.25000000000   0.25000000000   0.25000000000 )
                      symmetry related atoms: 
             Si:    2    1

                    5 rotation    
                 (  -1.00000000000   0.00000000000   0.00000000000 )
                 (   0.00000000000  -1.00000000000   0.00000000000 )
                 (   0.00000000000   0.00000000000   1.00000000000 )
                    5 displacement
                 (   0.00000000000   0.00000000000  -0.00000000000 )
                      symmetry related atoms: 
             Si:    1    2

                    6 rotation    
                 (   0.00000000000   0.00000000000   1.00000000000 )
                 (   0.00000000000  -1.00000000000   0.00000000000 )
                 (   1.00000000000   0.00000000000   0.00000000000 )
                    6 displacement
                 (   0.25000000000   0.25000000000   0.25000000000 )
                      symmetry related atoms: 
             Si:    2    1

                    7 rotation    
                 (   1.00000000000   0.00000000000   0.00000000000 )
                 (   0.00000000000  -1.00000000000   0.00000000000 )
                 (   0.00000000000   0.00000000000  -1.00000000000 )
                    7 displacement
                 (   0.00000000000   0.00000000000  -0.00000000000 )
                      symmetry related atoms: 
             Si:    1    2

                    8 rotation    
                 (   0.00000000000   0.00000000000  -1.00000000000 )
                 (   0.00000000000  -1.00000000000   0.00000000000 )
                 (  -1.00000000000   0.00000000000   0.00000000000 )
                    8 displacement
                 (   0.25000000000   0.25000000000   0.25000000000 )
                      symmetry related atoms: 
             Si:    2    1

                    9 rotation    
                 (   0.00000000000  -1.00000000000   0.00000000000 )
                 (   0.00000000000   0.00000000000   1.00000000000 )
                 (  -1.00000000000   0.00000000000   0.00000000000 )
                    9 displacement
                 (   0.00000000000   0.00000000000  -0.00000000000 )
                      symmetry related atoms: 
             Si:    1    2

                   10 rotation    
                 (  -1.00000000000   0.00000000000   0.00000000000 )
                 (   0.00000000000   0.00000000000   1.00000000000 )
                 (   0.00000000000   1.00000000000   0.00000000000 )
                   10 displacement
                 (   0.25000000000   0.25000000000   0.25000000000 )
                      symmetry related atoms: 
             Si:    2    1

                   11 rotation    
                 (   0.00000000000   1.00000000000   0.00000000000 )
                 (   0.00000000000   0.00000000000   1.00000000000 )
                 (   1.00000000000   0.00000000000   0.00000000000 )
                   11 displacement
                 (   0.00000000000   0.00000000000  -0.00000000000 )
                      symmetry related atoms: 
             Si:    1    2

                   12 rotation    
                 (   1.00000000000   0.00000000000   0.00000000000 )
                 (   0.00000000000   0.00000000000   1.00000000000 )
                 (   0.00000000000  -1.00000000000   0.00000000000 )
                   12 displacement
                 (   0.25000000000   0.25000000000   0.25000000000 )
                      symmetry related atoms: 
             Si:    2    1

                   13 rotation    
                 (   0.00000000000   1.00000000000   0.00000000000 )
                 (   0.00000000000   0.00000000000  -1.00000000000 )
                 (  -1.00000000000   0.00000000000   0.00000000000 )
                   13 displacement
                 (   0.00000000000   0.00000000000  -0.00000000000 )
                      symmetry related atoms: 
             Si:    1    2

                   14 rotation    
                 (  -1.00000000000   0.00000000000   0.00000000000 )
                 (   0.00000000000   0.00000000000  -1.00000000000 )
                 (   0.00000000000  -1.00000000000   0.00000000000 )
                   14 displacement
                 (   0.25000000000   0.25000000000   0.25000000000 )
                      symmetry related atoms: 
             Si:    2    1

                   15 rotation    
                 (   0.00000000000  -1.00000000000   0.00000000000 )
                 (   0.00000000000   0.00000000000  -1.00000000000 )
                 (   1.00000000000   0.00000000000   0.00000000000 )
                   15 displacement
                 (   0.00000000000   0.00000000000  -0.00000000000 )
                      symmetry related atoms: 
             Si:    1    2

                   16 rotation    
                 (   1.00000000000   0.00000000000   0.00000000000 )
                 (   0.00000000000   0.00000000000  -1.00000000000 )
                 (   0.00000000000   1.00000000000   0.00000000000 )
                   16 displacement
                 (   0.25000000000   0.25000000000   0.25000000000 )
                      symmetry related atoms: 
             Si:    2    1

                   17 rotation    
                 (   0.00000000000   0.00000000000  -1.00000000000 )
                 (  -1.00000000000   0.00000000000   0.00000000000 )
                 (   0.00000000000   1.00000000000   0.00000000000 )
                   17 displacement
                 (   0.00000000000   0.00000000000  -0.00000000000 )
                      symmetry related atoms: 
             Si:    1    2

                   18 rotation    
                 (   0.00000000000   1.00000000000   0.00000000000 )
                 (  -1.00000000000   0.00000000000   0.00000000000 )
                 (   0.00000000000   0.00000000000   1.00000000000 )
                   18 displacement
                 (   0.25000000000   0.25000000000   0.25000000000 )
                      symmetry related atoms: 
             Si:    2    1

                   19 rotation    
                 (   0.00000000000   0.00000000000   1.00000000000 )
                 (  -1.00000000000   0.00000000000   0.00000000000 )
                 (   0.00000000000  -1.00000000000   0.00000000000 )
                   19 displacement
                 (   0.00000000000   0.00000000000  -0.00000000000 )
                      symmetry related atoms: 
             Si:    1    2

                   20 rotation    
                 (   0.00000000000  -1.00000000000   0.00000000000 )
                 (  -1.00000000000   0.00000000000   0.00000000000 )
                 (   0.00000000000   0.00000000000  -1.00000000000 )
                   20 displacement
                 (   0.25000000000   0.25000000000   0.25000000000 )
                      symmetry related atoms: 
             Si:    2    1

                   21 rotation    
                 (   0.00000000000   0.00000000000   1.00000000000 )
                 (   1.00000000000   0.00000000000   0.00000000000 )
                 (   0.00000000000   1.00000000000   0.00000000000 )
                   21 displacement
                 (   0.00000000000   0.00000000000  -0.00000000000 )
                      symmetry related atoms: 
             Si:    1    2

                   22 rotation    
                 (   0.00000000000   1.00000000000   0.00000000000 )
                 (   1.00000000000   0.00000000000   0.00000000000 )
                 (   0.00000000000   0.00000000000  -1.00000000000 )
                   22 displacement
                 (   0.25000000000   0.25000000000   0.25000000000 )
                      symmetry related atoms: 
             Si:    2    1

                   23 rotation    
                 (   0.00000000000   0.00000000000  -1.00000000000 )
                 (   1.00000000000   0.00000000000   0.00000000000 )
                 (   0.00000000000  -1.00000000000   0.00000000000 )
                   23 displacement
                 (   0.00000000000   0.00000000000  -0.00000000000 )
                      symmetry related atoms: 
             Si:    1    2

                   24 rotation    
                 (   0.00000000000  -1.00000000000   0.00000000000 )
                 (   1.00000000000   0.00000000000   0.00000000000 )
                 (   0.00000000000   0.00000000000   1.00000000000 )
                   24 displacement
                 (   0.25000000000   0.25000000000   0.25000000000 )
                      symmetry related atoms: 
             Si:    2    1

                   25 rotation    
                 (  -1.00000000000   0.00000000000   0.00000000000 )
                 (   0.00000000000  -1.00000000000   0.00000000000 )
                 (   0.00000000000   0.00000000000  -1.00000000000 )
                   25 displacement
                 (   0.25000000000   0.25000000000   0.25000000000 )
                      symmetry related atoms: 
             Si:    2    1

                   26 rotation    
                 (   0.00000000000   0.00000000000  -1.00000000000 )
                 (   0.00000000000  -1.00000000000   0.00000000000 )
                 (   1.00000000000   0.00000000000   0.00000000000 )
                   26 displacement
                 (   0.00000000000   0.00000000000  -0.00000000000 )
                      symmetry related atoms: 
             Si:    1    2

                   27 rotation    
                 (   1.00000000000   0.00000000000   0.00000000000 )
                 (   0.00000000000  -1.00000000000   0.00000000000 )
                 (   0.00000000000   0.00000000000   1.00000000000 )
                   27 displacement
                 (   0.25000000000   0.25000000000   0.25000000000 )
                      symmetry related atoms: 
             Si:    2    1

                   28 rotation    
                 (   0.00000000000   0.00000000000   1.00000000000 )
                 (   0.00000000000  -1.00000000000   0.00000000000 )
                 (  -1.00000000000   0.00000000000   0.00000000000 )
                   28 displacement
                 (   0.00000000000   0.00000000000  -0.00000000000 )
                      symmetry related atoms: 
             Si:    1    2

                   29 rotation    
                 (   1.00000000000   0.00000000000   0.00000000000 )
                 (   0.00000000000   1.00000000000   0.00000000000 )
                 (   0.00000000000   0.00000000000  -1.00000000000 )
                   29 displacement
                 (   0.25000000000   0.25000000000   0.25000000000 )
                      symmetry related atoms: 
             Si:    2    1

                   30 rotation    
                 (   0.00000000000   0.00000000000  -1.00000000000 )
                 (   0.00000000000   1.00000000000   0.00000000000 )
                 (  -1.00000000000   0.00000000000   0.00000000000 )
                   30 displacement
                 (   0.00000000000   0.00000000000  -0.00000000000 )
                      symmetry related atoms: 
             Si:    1    2

                   31 rotation    
                 (  -1.00000000000   0.00000000000   0.00000000000 )
                 (   0.00000000000   1.00000000000   0.00000000000 )
                 (   0.00000000000   0.00000000000   1.00000000000 )
                   31 displacement
                 (   0.25000000000   0.25000000000   0.25000000000 )
                      symmetry related atoms: 
             Si:    2    1

                   32 rotation    
                 (   0.00000000000   0.00000000000   1.00000000000 )
                 (   0.00000000000   1.00000000000   0.00000000000 )
                 (   1.00000000000   0.00000000000   0.00000000000 )
                   32 displacement
                 (   0.00000000000   0.00000000000  -0.00000000000 )
                      symmetry related atoms: 
             Si:    1    2

                   33 rotation    
                 (   0.00000000000   1.00000000000   0.00000000000 )
                 (   0.00000000000   0.00000000000  -1.00000000000 )
                 (   1.00000000000   0.00000000000   0.00000000000 )
                   33 displacement
                 (   0.25000000000   0.25000000000   0.25000000000 )
                      symmetry related atoms: 
             Si:    2    1

                   34 rotation    
                 (   1.00000000000   0.00000000000   0.00000000000 )
                 (   0.00000000000   0.00000000000  -1.00000000000 )
                 (   0.00000000000  -1.00000000000   0.00000000000 )
                   34 displacement
                 (   0.00000000000   0.00000000000  -0.00000000000 )
                      symmetry related atoms: 
             Si:    1    2

                   35 rotation    
                 (   0.00000000000  -1.00000000000   0.00000000000 )
                 (   0.00000000000   0.00000000000  -1.00000000000 )
                 (  -1.00000000000   0.00000000000   0.00000000000 )
                   35 displacement
                 (   0.25000000000   0.25000000000   0.25000000000 )
                      symmetry related atoms: 
             Si:    2    1

                   36 rotation    
                 (  -1.00000000000   0.00000000000   0.00000000000 )
                 (   0.00000000000   0.00000000000  -1.00000000000 )
                 (   0.00000000000   1.00000000000   0.00000000000 )
                   36 displacement
                 (   0.00000000000   0.00000000000  -0.00000000000 )
                      symmetry related atoms: 
             Si:    1    2

                   37 rotation    
                 (   0.00000000000  -1.00000000000   0.00000000000 )
                 (   0.00000000000   0.00000000000   1.00000000000 )
                 (   1.00000000000   0.00000000000   0.00000000000 )
                   37 displacement
                 (   0.25000000000   0.25000000000   0.25000000000 )
                      symmetry related atoms: 
             Si:    2    1

                   38 rotation    
                 (   1.00000000000   0.00000000000   0.00000000000 )
                 (   0.00000000000   0.00000000000   1.00000000000 )
                 (   0.00000000000   1.00000000000   0.00000000000 )
                   38 displacement
                 (   0.00000000000   0.00000000000  -0.00000000000 )
                      symmetry related atoms: 
             Si:    1    2

                   39 rotation    
                 (   0.00000000000   1.00000000000   0.00000000000 )
                 (   0.00000000000   0.00000000000   1.00000000000 )
                 (  -1.00000000000   0.00000000000   0.00000000000 )
                   39 displacement
                 (   0.25000000000   0.25000000000   0.25000000000 )
                      symmetry related atoms: 
             Si:    2    1

                   40 rotation    
                 (  -1.00000000000   0.00000000000   0.00000000000 )
                 (   0.00000000000   0.00000000000   1.00000000000 )
                 (   0.00000000000  -1.00000000000   0.00000000000 )
                   40 displacement
                 (   0.00000000000   0.00000000000  -0.00000000000 )
                      symmetry related atoms: 
             Si:    1    2

                   41 rotation    
                 (   0.00000000000   0.00000000000   1.00000000000 )
                 (   1.00000000000   0.00000000000   0.00000000000 )
                 (   0.00000000000  -1.00000000000   0.00000000000 )
                   41 displacement
                 (   0.25000000000   0.25000000000   0.25000000000 )
                      symmetry related atoms: 
             Si:    2    1

                   42 rotation    
                 (   0.00000000000  -1.00000000000   0.00000000000 )
                 (   1.00000000000   0.00000000000   0.00000000000 )
                 (   0.00000000000   0.00000000000  -1.00000000000 )
                   42 displacement
                 (   0.00000000000   0.00000000000  -0.00000000000 )
                      symmetry related atoms: 
             Si:    1    2

                   43 rotation    
                 (   0.00000000000   0.00000000000  -1.00000000000 )
                 (   1.00000000000   0.00000000000   0.00000000000 )
                 (   0.00000000000   1.00000000000   0.00000000000 )
                   43 displacement
                 (   0.25000000000   0.25000000000   0.25000000000 )
                      symmetry related atoms: 
             Si:    2    1

                   44 rotation    
                 (   0.00000000000   1.00000000000   0.00000000000 )
                 (   1.00000000000   0.00000000000   0.00000000000 )
                 (   0.00000000000   0.00000000000   1.00000000000 )
                   44 displacement
                 (   0.00000000000   0.00000000000  -0.00000000000 )
                      symmetry related atoms: 
             Si:    1    2

                   45 rotation    
                 (   0.00000000000   0.00000000000  -1.00000000000 )
                 (  -1.00000000000   0.00000000000   0.00000000000 )
                 (   0.00000000000  -1.00000000000   0.00000000000 )
                   45 displacement
                 (   0.25000000000   0.25000000000   0.25000000000 )
                      symmetry related atoms: 
             Si:    2    1

                   46 rotation    
                 (   0.00000000000  -1.00000000000   0.00000000000 )
                 (  -1.00000000000   0.00000000000   0.00000000000 )
                 (   0.00000000000   0.00000000000   1.00000000000 )
                   46 displacement
                 (   0.00000000000   0.00000000000  -0.00000000000 )
                      symmetry related atoms: 
             Si:    1    2

                   47 rotation    
                 (   0.00000000000   0.00000000000   1.00000000000 )
                 (  -1.00000000000   0.00000000000   0.00000000000 )
                 (   0.00000000000   1.00000000000   0.00000000000 )
                   47 displacement
                 (   0.25000000000   0.25000000000   0.25000000000 )
                      symmetry related atoms: 
             Si:    2    1

                   48 rotation    
                 (   0.00000000000   1.00000000000   0.00000000000 )
                 (  -1.00000000000   0.00000000000   0.00000000000 )
                 (   0.00000000000   0.00000000000  -1.00000000000 )
                   48 displacement
                 (   0.00000000000   0.00000000000  -0.00000000000 )
                      symmetry related atoms: 
             Si:    1    2


                         Centre of mass is constrained

            xxxxxxxxxxxxxxxxxxxxxxxxxxxxxxxxxxxxxxxxxxxxxxxxxxxxxxxxx....
            x  Species  atom   co-ordinate  constraints.....         
            x--------------------------------------------------------....
            x Si           1       x        51196.7345      0.0000      0.0000
            x Si           1       y            0.0000  51196.7345      0.0000
            x Si           1       z            0.0000      0.0000  51196.7345
            x Si           2       x        51196.7345      0.0000      0.0000
            x Si           2       y            0.0000  51196.7345      0.0000
            x Si           2       z            0.0000      0.0000  51196.7345
            xxxxxxxxxxxxxxxxxxxxxxxxxxxxxxxxxxxxxxxxxxxxxxxxxxxxxxxxx....

                         Number of cell constraints= 5
                         Cell constraints are:  1 1 1 0 0 0

                         External pressure/stress (GPa)
                          0.00000   0.00000   0.00000
                                    0.00000   0.00000
                                              0.00000
  
+---------------- MEMORY AND SCRATCH DISK ESTIMATES PER PROCESS --------------+
|                                                     Memory          Disk    |
| Baseline code, static data and system overhead        0.0 MB         0.0 MB |
| BLAS internal memory storage                          0.0 MB         0.0 MB |
| Model and support data                                2.8 MB         0.0 MB |
| Electronic energy minimisation requirements           0.6 MB         0.0 MB |
| Force calculation requirements                        0.2 MB         0.0 MB |
|                                               ----------------------------- |
| Approx. total storage required per process            3.4 MB         0.0 MB |
|                                                                             |
| Requirements will fluctuate during execution and may exceed these estimates |
+-----------------------------------------------------------------------------+
 
Init
Total energy                     =       169.69668192624627068 eV
------------------------------------------------------------------------ <-- SCF
SCF loop      Energy                           Energy gain       Timer   <-- SCF
                                               per atom          (sec)   <-- SCF
------------------------------------------------------------------------ <-- SCF
Initial   1.69696682E+002                                          0.14  <-- SCF
+------------------- WAVEFUNCTION LINE MINIMISATION --------------------+<- line
| Initial energy =  1.696967E+002 eV; initial dE/dstep = -2.874E+002 eV |<- line
|                                                                       |<- line
|            1st step    2nd step    3rd step    4th step    5th step   |<- line
+--------+--------------------------------------------------------------+<- line
| step   |  1.500E+00   1.713E+00* unnecessary unnecessary unnecessary  |<- line
| gain   |  2.424E+02   2.447E+02* unnecessary unnecessary unnecessary  |<- line
+--------+--------------------------------------------------------------+<- line
 * indicates the final, accepted state (should have the lowest energy)          
 
+------------------- WAVEFUNCTION LINE MINIMISATION --------------------+<- line
| Initial energy = -7.503374E+001 eV; initial dE/dstep = -1.179E+002 eV |<- line
|                                                                       |<- line
|            1st step    2nd step    3rd step    4th step    5th step   |<- line
+--------+--------------------------------------------------------------+<- line
| step   |  1.500E+00   1.245E+00* unnecessary unnecessary unnecessary  |<- line
| gain   |  7.033E+01   7.228E+01* unnecessary unnecessary unnecessary  |<- line
+--------+--------------------------------------------------------------+<- line
 * indicates the final, accepted state (should have the lowest energy)          
 
+------------------- WAVEFUNCTION LINE MINIMISATION --------------------+<- line
| Initial energy = -1.473187E+002 eV; initial dE/dstep = -5.989E+001 eV |<- line
|                                                                       |<- line
|            1st step    2nd step    3rd step    4th step    5th step   |<- line
+--------+--------------------------------------------------------------+<- line
| step   |  1.500E+00   1.057E+00* unnecessary unnecessary unnecessary  |<- line
| gain   |  2.610E+01   3.078E+01* unnecessary unnecessary unnecessary  |<- line
+--------+--------------------------------------------------------------+<- line
 * indicates the final, accepted state (should have the lowest energy)          
 
+------------------- WAVEFUNCTION LINE MINIMISATION --------------------+<- line
| Initial energy = -1.780990E+002 eV; initial dE/dstep = -3.496E+001 eV |<- line
|                                                                       |<- line
|            1st step    2nd step    3rd step    4th step    5th step   |<- line
+--------+--------------------------------------------------------------+<- line
| step   |  1.500E+00   9.659E-01* unnecessary unnecessary unnecessary  |<- line
| gain   |  1.172E+01   1.645E+01* unnecessary unnecessary unnecessary  |<- line
+--------+--------------------------------------------------------------+<- line
 * indicates the final, accepted state (should have the lowest energy)          
 
+------------------- WAVEFUNCTION LINE MINIMISATION --------------------+<- line
| Initial energy = -1.945475E+002 eV; initial dE/dstep = -2.140E+001 eV |<- line
|                                                                       |<- line
|            1st step    2nd step    3rd step    4th step    5th step   |<- line
+--------+--------------------------------------------------------------+<- line
| step   |  1.500E+00   8.538E-01* unnecessary unnecessary unnecessary  |<- line
| gain   |  3.902E+00   8.883E+00* unnecessary unnecessary unnecessary  |<- line
+--------+--------------------------------------------------------------+<- line
 * indicates the final, accepted state (should have the lowest energy)          
 
      1  -2.03430483E+002                    1.86563583E+002       0.22  <-- SCF
+------------------- WAVEFUNCTION LINE MINIMISATION --------------------+<- line
| Initial energy = -2.034305E+002 eV; initial dE/dstep = -4.065E+000 eV |<- line
|                                                                       |<- line
|            1st step    2nd step    3rd step    4th step    5th step   |<- line
+--------+--------------------------------------------------------------+<- line
| step   |  1.500E+00   4.633E+00* unnecessary unnecessary unnecessary  |<- line
| gain   |  5.110E+00   8.862E+00* unnecessary unnecessary unnecessary  |<- line
+--------+--------------------------------------------------------------+<- line
 * indicates the final, accepted state (should have the lowest energy)          
 
+------------------- WAVEFUNCTION LINE MINIMISATION --------------------+<- line
| Initial energy = -2.122922E+002 eV; initial dE/dstep = -1.001E+000 eV |<- line
|                                                                       |<- line
|            1st step    2nd step    3rd step    4th step    5th step   |<- line
+--------+--------------------------------------------------------------+<- line
| step   |  1.500E+00   4.488E+00* unnecessary unnecessary unnecessary  |<- line
| gain   |  1.250E+00   2.172E+00* unnecessary unnecessary unnecessary  |<- line
+--------+--------------------------------------------------------------+<- line
 * indicates the final, accepted state (should have the lowest energy)          
 
+------------------- WAVEFUNCTION LINE MINIMISATION --------------------+<- line
| Initial energy = -2.144642E+002 eV; initial dE/dstep = -4.595E-001 eV |<- line
|                                                                       |<- line
|            1st step    2nd step    3rd step    4th step    5th step   |<- line
+--------+--------------------------------------------------------------+<- line
| step   |  1.500E+00   4.389E+00* unnecessary unnecessary unnecessary  |<- line
| gain   |  5.715E-01   9.659E-01* unnecessary unnecessary unnecessary  |<- line
+--------+--------------------------------------------------------------+<- line
 * indicates the final, accepted state (should have the lowest energy)          
 
+------------------- WAVEFUNCTION LINE MINIMISATION --------------------+<- line
| Initial energy = -2.154301E+002 eV; initial dE/dstep = -1.912E-001 eV |<- line
|                                                                       |<- line
|            1st step    2nd step    3rd step    4th step    5th step   |<- line
+--------+--------------------------------------------------------------+<- line
| step   |  1.500E+00   4.346E+00* unnecessary unnecessary unnecessary  |<- line
| gain   |  2.373E-01   4.001E-01* unnecessary unnecessary unnecessary  |<- line
+--------+--------------------------------------------------------------+<- line
 * indicates the final, accepted state (should have the lowest energy)          
 
+------------------- WAVEFUNCTION LINE MINIMISATION --------------------+<- line
| Initial energy = -2.158302E+002 eV; initial dE/dstep = -8.235E-002 eV |<- line
|                                                                       |<- line
|            1st step    2nd step    3rd step    4th step    5th step   |<- line
+--------+--------------------------------------------------------------+<- line
| step   |  1.500E+00   4.052E+00* unnecessary unnecessary unnecessary  |<- line
| gain   |  1.007E-01   1.648E-01* unnecessary unnecessary unnecessary  |<- line
+--------+--------------------------------------------------------------+<- line
 * indicates the final, accepted state (should have the lowest energy)          
 
      2  -2.15994980E+002                    6.28224864E+000       0.29  <-- SCF
+------------------- WAVEFUNCTION LINE MINIMISATION --------------------+<- line
| Initial energy = -2.159950E+002 eV; initial dE/dstep = -2.856E-002 eV |<- line
|                                                                       |<- line
|            1st step    2nd step    3rd step    4th step    5th step   |<- line
+--------+--------------------------------------------------------------+<- line
| step   |  1.500E+00   4.317E+00* unnecessary unnecessary unnecessary  |<- line
| gain   |  3.540E-02   6.172E-02* unnecessary unnecessary unnecessary  |<- line
+--------+--------------------------------------------------------------+<- line
 * indicates the final, accepted state (should have the lowest energy)          
 
+------------------- WAVEFUNCTION LINE MINIMISATION --------------------+<- line
| Initial energy = -2.160567E+002 eV; initial dE/dstep = -1.235E-002 eV |<- line
|                                                                       |<- line
|            1st step    2nd step    3rd step    4th step    5th step   |<- line
+--------+--------------------------------------------------------------+<- line
| step   |  1.500E+00   3.831E+00* unnecessary unnecessary unnecessary  |<- line
| gain   |  1.490E-02   2.364E-02* unnecessary unnecessary unnecessary  |<- line
+--------+--------------------------------------------------------------+<- line
 * indicates the final, accepted state (should have the lowest energy)          
 
+------------------- WAVEFUNCTION LINE MINIMISATION --------------------+<- line
| Initial energy = -2.160803E+002 eV; initial dE/dstep = -4.034E-003 eV |<- line
|                                                                       |<- line
|            1st step    2nd step    3rd step    4th step    5th step   |<- line
+--------+--------------------------------------------------------------+<- line
| step   |  1.500E+00   3.918E+00* unnecessary unnecessary unnecessary  |<- line
| gain   |  4.893E-03   7.901E-03* unnecessary unnecessary unnecessary  |<- line
+--------+--------------------------------------------------------------+<- line
 * indicates the final, accepted state (should have the lowest energy)          
 
+------------------- WAVEFUNCTION LINE MINIMISATION --------------------+<- line
| Initial energy = -2.160882E+002 eV; initial dE/dstep = -1.152E-003 eV |<- line
|                                                                       |<- line
|            1st step    2nd step    3rd step    4th step    5th step   |<- line
+--------+--------------------------------------------------------------+<- line
| step   |  1.500E+00   3.518E+00* unnecessary unnecessary unnecessary  |<- line
| gain   |  1.359E-03   2.031E-03* unnecessary unnecessary unnecessary  |<- line
+--------+--------------------------------------------------------------+<- line
 * indicates the final, accepted state (should have the lowest energy)          
 
+------------------- WAVEFUNCTION LINE MINIMISATION --------------------+<- line
| Initial energy = -2.160903E+002 eV; initial dE/dstep = -2.451E-004 eV |<- line
|                                                                       |<- line
|            1st step    2nd step    3rd step    4th step    5th step   |<- line
+--------+--------------------------------------------------------------+<- line
| step   |  1.500E+00   4.243E+00* unnecessary unnecessary unnecessary  |<- line
| gain   |  3.027E-04   5.172E-04* unnecessary unnecessary unnecessary  |<- line
+--------+--------------------------------------------------------------+<- line
 * indicates the final, accepted state (should have the lowest energy)          
 
      3  -2.16090793E+002                    4.79063735E-002       0.36  <-- SCF
+------------------- WAVEFUNCTION LINE MINIMISATION --------------------+<- line
| Initial energy = -2.160908E+002 eV; initial dE/dstep = -6.224E-005 eV |<- line
|                                                                       |<- line
|            1st step    2nd step    3rd step    4th step    5th step   |<- line
+--------+--------------------------------------------------------------+<- line
| step   |  1.500E+00   3.242E+00* unnecessary unnecessary unnecessary  |<- line
| gain   |  7.176E-05   1.002E-04* unnecessary unnecessary unnecessary  |<- line
+--------+--------------------------------------------------------------+<- line
 * indicates the final, accepted state (should have the lowest energy)          
 
+------------------- WAVEFUNCTION LINE MINIMISATION --------------------+<- line
| Initial energy = -2.160909E+002 eV; initial dE/dstep = -2.368E-005 eV |<- line
|                                                                       |<- line
|            1st step    2nd step    3rd step    4th step    5th step   |<- line
+--------+--------------------------------------------------------------+<- line
| step   |  1.500E+00   4.992E+00* unnecessary unnecessary unnecessary  |<- line
| gain   |  3.018E-05   5.920E-05* unnecessary unnecessary unnecessary  |<- line
+--------+--------------------------------------------------------------+<- line
 * indicates the final, accepted state (should have the lowest energy)          
 
+------------------- WAVEFUNCTION LINE MINIMISATION --------------------+<- line
| Initial energy = -2.160910E+002 eV; initial dE/dstep = -9.061E-006 eV |<- line
|                                                                       |<- line
|            1st step    2nd step    3rd step    4th step    5th step   |<- line
+--------+--------------------------------------------------------------+<- line
| step   |  1.500E+00   3.881E+00* unnecessary unnecessary unnecessary  |<- line
| gain   |  1.096E-05   1.772E-05* unnecessary unnecessary unnecessary  |<- line
+--------+--------------------------------------------------------------+<- line
 * indicates the final, accepted state (should have the lowest energy)          
 
+------------------- WAVEFUNCTION LINE MINIMISATION --------------------+<- line
| Initial energy = -2.160910E+002 eV; initial dE/dstep = -2.084E-006 eV |<- line
|                                                                       |<- line
|            1st step    2nd step    3rd step    4th step    5th step   |<- line
+--------+--------------------------------------------------------------+<- line
| step   |  1.500E+00   3.886E+00* unnecessary unnecessary unnecessary  |<- line
| gain   |  2.523E-06   4.015E-06* unnecessary unnecessary unnecessary  |<- line
+--------+--------------------------------------------------------------+<- line
 * indicates the final, accepted state (should have the lowest energy)          
 
+------------------- WAVEFUNCTION LINE MINIMISATION --------------------+<- line
| Initial energy = -2.160910E+002 eV; initial dE/dstep = -6.274E-007 eV |<- line
|                                                                       |<- line
|            1st step    2nd step    3rd step    4th step    5th step   |<- line
+--------+--------------------------------------------------------------+<- line
| step   |  1.500E+00   4.285E+00* unnecessary unnecessary unnecessary  |<- line
| gain   |  7.764E-07   1.131E-06* unnecessary unnecessary unnecessary  |<- line
+--------+--------------------------------------------------------------+<- line
 * indicates the final, accepted state (should have the lowest energy)          
 
      4  -2.16090975E+002                    9.11471788E-005       0.44  <-- SCF
+------------------- WAVEFUNCTION LINE MINIMISATION --------------------+<- line
| Initial energy = -2.160910E+002 eV; initial dE/dstep = -3.333E-007 eV |<- line
|                                                                       |<- line
|            1st step    2nd step    3rd step    4th step    5th step   |<- line
+--------+--------------------------------------------------------------+<- line
| step   |  1.500E+00   2.107E+00* unnecessary unnecessary unnecessary  |<- line
| gain   |  3.220E-07   3.647E-07* unnecessary unnecessary unnecessary  |<- line
+--------+--------------------------------------------------------------+<- line
 * indicates the final, accepted state (should have the lowest energy)          
 
+------------------- WAVEFUNCTION LINE MINIMISATION --------------------+<- line
| Initial energy = -2.160910E+002 eV; initial dE/dstep = -6.336E-008 eV |<- line
|                                                                       |<- line
|            1st step    2nd step    3rd step    4th step    5th step   |<- line
+--------+--------------------------------------------------------------+<- line
| step   |  1.500E+00   3.742E+00* unnecessary unnecessary unnecessary  |<- line
| gain   |  7.599E-08   1.322E-07* unnecessary unnecessary unnecessary  |<- line
+--------+--------------------------------------------------------------+<- line
 * indicates the final, accepted state (should have the lowest energy)          
 
+------------------- WAVEFUNCTION LINE MINIMISATION --------------------+<- line
| Initial energy = -2.160910E+002 eV; initial dE/dstep = -2.448E-008 eV |<- line
|                                                                       |<- line
|            1st step    2nd step    3rd step    4th step    5th step   |<- line
+--------+--------------------------------------------------------------+<- line
| step   |  1.500E+00*  2.488E+01  unnecessary unnecessary unnecessary  |<- line
| gain   |  3.561E-08* -1.160E-06  unnecessary unnecessary unnecessary  |<- line
+--------+--------------------------------------------------------------+<- line
 * indicates the final, accepted state (should have the lowest energy)          
 
** Parabolic stationary point is a maximum *
** - looks like we need another trial step *
+------------------- WAVEFUNCTION LINE MINIMISATION --------------------+<- line
| Initial energy = -2.160910E+002 eV; initial dE/dstep = -1.773E-008 eV |<- line
|                                                                       |<- line
|            1st step    2nd step    3rd step    4th step    5th step   |<- line
+--------+--------------------------------------------------------------+<- line
| step   |  1.500E+00* unnecessary unnecessary unnecessary unnecessary  |<- line
| gain   |  2.742E-08* unnecessary unnecessary unnecessary unnecessary  |<- line
+--------+--------------------------------------------------------------+<- line
 * indicates the final, accepted state (should have the lowest energy)          
 
** Parabolic stationary point is a maximum *
** - looks like we need another trial step *
+------------------- WAVEFUNCTION LINE MINIMISATION --------------------+<- line
| Initial energy = -2.160910E+002 eV; initial dE/dstep = -9.503E-009 eV |<- line
|                                                                       |<- line
|            1st step    2nd step    3rd step    4th step    5th step   |<- line
+--------+--------------------------------------------------------------+<- line
| step   |  1.500E+00* unnecessary unnecessary unnecessary unnecessary  |<- line
| gain   |  1.526E-08* unnecessary unnecessary unnecessary unnecessary  |<- line
+--------+--------------------------------------------------------------+<- line
 * indicates the final, accepted state (should have the lowest energy)          
 
      5  -2.16090976E+002                    2.87591628E-007       0.50  <-- SCF
+------------------- WAVEFUNCTION LINE MINIMISATION --------------------+<- line
| Initial energy = -2.160910E+002 eV; initial dE/dstep = -2.830E-009 eV |<- line
|                                                                       |<- line
|            1st step    2nd step    3rd step    4th step    5th step   |<- line
+--------+--------------------------------------------------------------+<- line
| step   |  1.500E+00   2.137E+00* unnecessary unnecessary unnecessary  |<- line
| gain   |  2.755E-09   3.571E-09* unnecessary unnecessary unnecessary  |<- line
+--------+--------------------------------------------------------------+<- line
 * indicates the final, accepted state (should have the lowest energy)          
 
+------------------- WAVEFUNCTION LINE MINIMISATION --------------------+<- line
| Initial energy = -2.160910E+002 eV; initial dE/dstep = -2.287E-009 eV |<- line
|                                                                       |<- line
|            1st step    2nd step    3rd step    4th step    5th step   |<- line
+--------+--------------------------------------------------------------+<- line
| step   |  1.500E+00   6.277E+00* unnecessary unnecessary unnecessary  |<- line
| gain   |  3.021E-09   6.770E-09* unnecessary unnecessary unnecessary  |<- line
+--------+--------------------------------------------------------------+<- line
 * indicates the final, accepted state (should have the lowest energy)          
 
** Parabolic stationary point is a maximum *
** - looks like we need another trial step *
+------------------- WAVEFUNCTION LINE MINIMISATION --------------------+<- line
| Initial energy = -2.160910E+002 eV; initial dE/dstep = -1.522E-009 eV |<- line
|                                                                       |<- line
|            1st step    2nd step    3rd step    4th step    5th step   |<- line
+--------+--------------------------------------------------------------+<- line
| step   |  1.500E+00* unnecessary unnecessary unnecessary unnecessary  |<- line
| gain   |  4.275E-09* unnecessary unnecessary unnecessary unnecessary  |<- line
+--------+--------------------------------------------------------------+<- line
 * indicates the final, accepted state (should have the lowest energy)          
 
** Parabolic stationary point is a maximum *
** - looks like we need another trial step *
+------------------- WAVEFUNCTION LINE MINIMISATION --------------------+<- line
| Initial energy = -2.160910E+002 eV; initial dE/dstep = -1.095E-009 eV |<- line
|                                                                       |<- line
|            1st step    2nd step    3rd step    4th step    5th step   |<- line
+--------+--------------------------------------------------------------+<- line
| step   |  1.500E+00* unnecessary unnecessary unnecessary unnecessary  |<- line
| gain   |  4.098E-09* unnecessary unnecessary unnecessary unnecessary  |<- line
+--------+--------------------------------------------------------------+<- line
 * indicates the final, accepted state (should have the lowest energy)          
 
** Parabolic stationary point is a maximum *
** - looks like we need another trial step *
+------------------- WAVEFUNCTION LINE MINIMISATION --------------------+<- line
| Initial energy = -2.160910E+002 eV; initial dE/dstep = -2.650E-010 eV |<- line
|                                                                       |<- line
|            1st step    2nd step    3rd step    4th step    5th step   |<- line
+--------+--------------------------------------------------------------+<- line
| step   |  1.500E+00* unnecessary unnecessary unnecessary unnecessary  |<- line
| gain   |  1.426E-09* unnecessary unnecessary unnecessary unnecessary  |<- line
+--------+--------------------------------------------------------------+<- line
 * indicates the final, accepted state (should have the lowest energy)          
 
      6  -2.16090976E+002                    1.00699655E-008       0.56  <-- SCF
------------------------------------------------------------------------ <-- SCF
Total energy has converged after 6 SCF iterations.
 
Final energy =  -216.0909760758     eV
(energy not corrected for finite basis set)
 
Have a nice day.

Writing analysis data to Si2.castep_bin

Writing model to Si2.check
Fermi energy is +inf, since nelectrons = band_degeneracy*total_nbands
Initialising basis set.

Standard grid dimensions:  12  12  12
Fine grid dimensions:      12  12  12

Plane wave load balancing: max    125 min    108 average    116
True cut-off energy of basis :   4.399
 Reassigning basis set.
True cut-off energy of basis :   4.399
  
+---------------- MEMORY AND SCRATCH DISK ESTIMATES PER PROCESS --------------+
|                                                     Memory          Disk    |
| Baseline code, static data and system overhead        0.0 MB         0.0 MB |
| BLAS internal memory storage                          0.0 MB         0.0 MB |
| Model and support data                                3.7 MB         0.0 MB |
| Band structure calculation requirements               4.1 MB         0.0 MB |
| Force calculation requirements                        0.2 MB         0.0 MB |
|                                               ----------------------------- |
| Approx. total storage required per process            7.8 MB         0.0 MB |
|                                                                             |
| Requirements will fluctuate during execution and may exceed these estimates |
+-----------------------------------------------------------------------------+
  =====================================================================
  +  Fermi energy for spin-degenerate system:     6.06222 eV          +
  +                                                                   +
  +       B A N D   S T R U C T U R E   C A L C U L A T I O N         +
  +      (General k-point calculation - complex wavefunctions)        +
  +                                                                   +
  + ================================================================= +
  +                                                                   +
  +     Band Structure Calculation: Progress report on root process   +
  +                                                                   +
  +   There are   44 BS k-points. Root process contains   44 of them. +
  +                                                                   +
|     1  |   18  |  3.391418E+01  -1.299864E+00 |   3.5214E+01     -X-  |<- line
|     2  |   21  |  3.916718E+01  -1.302060E+00 |   4.0469E+01     -X-  |<- line
|     3  |   21  |  4.198391E+01   2.377912E+00 |   3.9606E+01     -X-  |<- line
|     4  |   25  |  4.611958E+01   2.380436E+00 |   4.3739E+01     X--  |<- line
|     5  |   25  |  4.906039E+01   1.070490E+01 |   3.8355E+01     X--  |<- line
|     6  |   25  |  5.100320E+01   1.070563E+01 |   4.0298E+01     X--  |<- line
|     7  |   25  |  5.173634E+01   1.148971E+01 |   4.0247E+01     XX-  |<- line
|     8  |   25  |  5.472334E+01   1.149119E+01 |   4.3232E+01     X--  |<- line
|     9  |   25  |  6.211439E+01   1.739324E+01 |   4.4721E+01     X--  |<- line
|    10  |   25  |  6.176681E+01   1.739188E+01 |   4.4375E+01     X--  |<- line
|    11  |   24  |  6.319145E+01   1.977788E+01 |   4.3414E+01     -X-  |<- line
|    12  |   23  |  6.735164E+01   1.977758E+01 |   4.7574E+01     -X-  |<- line
|    13  |   25  |  6.819468E+01   2.327156E+01 |   4.4923E+01     X--  |<- line
|    14  |   25  |  7.145673E+01   2.350690E+01 |   4.7950E+01     X--  |<- line
  +         BS Iteration:   1 of (up to)   60, Time:     0.04s.       +
|     1  |    1  | -1.303094E+00  -1.303094E+00 |   1.6300E-07     -X-  |<- line
|     2  |    1  | -1.298830E+00  -1.298830E+00 |   1.0716E-07     -X-  |<- line
|     3  |    4  |  2.376891E+00   2.376180E+00 |   7.1158E-04     -X-  |<- line
|     4  |    4  |  2.378267E+00   2.378017E+00 |   2.5052E-04     -X-  |<- line
|     5  |    3  |  1.070213E+01   1.070208E+01 |   4.7831E-05     -X-  |<- line
|     6  |    3  |  1.070473E+01   1.070467E+01 |   6.3498E-05     -X-  |<- line
|     7  |    3  |  1.149139E+01   1.149127E+01 |   1.2409E-04     -X-  |<- line
|     8  |    3  |  1.149470E+01   1.149446E+01 |   2.4350E-04     -X-  |<- line
|     9  |    3  |  1.739193E+01   1.739189E+01 |   3.5829E-05     -X-  |<- line
|    10  |    2  |  1.739428E+01   1.739427E+01 |   7.1069E-06     -X-  |<- line
|    11  |    1  |  1.977732E+01   1.977732E+01 |   3.2165E-07     -X-  |<- line
|    12  |    1  |  1.977821E+01   1.977821E+01 |   3.0273E-07     -X-  |<- line
|    13  |    4  |  2.327187E+01   2.327176E+01 |   1.0688E-04     -X-  |<- line
|    14  |    9  |  2.350712E+01   2.327068E+01 |   2.3644E-01     -X-  |<- line
  +         BS Iteration:   2 of (up to)   60, Time:     0.01s.       +
|     1  |    1  | -1.303094E+00  -1.303094E+00 |   1.4326E-08     -X-  |<- line
|     2  |    1  | -1.298830E+00  -1.298830E+00 |   1.1377E-08     -X-  |<- line
|     3  |    1  |  2.376087E+00   2.376087E+00 |   2.4828E-08     -X-  |<- line
|     4  |    1  |  2.378109E+00   2.378109E+00 |   3.1300E-09     -X-  |<- line
|     5  |    1  |  1.070208E+01   1.070208E+01 |   8.0767E-09     -X-  |<- line
|     6  |    1  |  1.070467E+01   1.070467E+01 |   1.1476E-08     -X-  |<- line
|     7  |    1  |  1.149126E+01   1.149126E+01 |   6.1132E-08     -X-  |<- line
|     8  |    1  |  1.149447E+01   1.149447E+01 |   9.3808E-08     -X-  |<- line
|     9  |    1  |  1.739189E+01   1.739189E+01 |   2.0687E-08     -X-  |<- line
|    10  |    1  |  1.739427E+01   1.739427E+01 |   3.4266E-08     -X-  |<- line
|    11  |    1  |  1.977732E+01   1.977732E+01 |   5.2101E-08     -X-  |<- line
|    12  |    1  |  1.977821E+01   1.977821E+01 |   4.4124E-08     -X-  |<- line
|    13  |    1  |  2.327006E+01   2.327006E+01 |   1.9923E-07     -X-  |<- line
|    14  |    1  |  2.327239E+01   2.327239E+01 |   1.7592E-07     -X-  |<- line
  +         BS Iteration:   3 of (up to)   60, Time:     0.00s.       +
  +         BS Iteration:   4 of (up to)   60, Time:     0.00s.       +
  +   Spin= 1 of  1, K-point=   1 of   44 completed, Time:     0.05s. +
|     1  |   25  |  3.023694E+01  -1.674832E+00 |   3.1912E+01     X--  |<- line
|     2  |   25  |  3.432619E+01  -9.519068E-01 |   3.5278E+01     X--  |<- line
|     3  |   25  |  4.235630E+01   2.156569E+00 |   4.0200E+01     X--  |<- line
|     4  |   24  |  4.368593E+01   2.694578E+00 |   4.0991E+01     -X-  |<- line
|     5  |   25  |  4.601194E+01   1.032496E+01 |   3.5687E+01     X--  |<- line
|     6  |   25  |  4.963343E+01   1.075722E+01 |   3.8876E+01     X--  |<- line
|     7  |   25  |  5.038287E+01   1.151156E+01 |   3.8871E+01     X--  |<- line
|     8  |   25  |  5.460510E+01   1.186078E+01 |   4.2744E+01     X--  |<- line
|     9  |   25  |  5.565455E+01   1.646419E+01 |   3.9190E+01     X--  |<- line
|    10  |   25  |  5.819276E+01   1.810260E+01 |   4.0090E+01     X--  |<- line
|    11  |   25  |  6.175310E+01   1.907350E+01 |   4.2680E+01     X--  |<- line
|    12  |   25  |  6.352905E+01   2.059331E+01 |   4.2936E+01     X--  |<- line
|    13  |   25  |  6.412250E+01   2.242461E+01 |   4.1698E+01     X--  |<- line
|    14  |   25  |  6.815793E+01   2.381001E+01 |   4.4348E+01     X--  |<- line
  +         BS Iteration:   1 of (up to)   60, Time:     0.04s.       +
|     1  |    3  | -1.675266E+00  -1.675383E+00 |   1.1761E-04     -X-  |<- line
|     2  |    4  | -9.559450E-01  -9.562422E-01 |   2.9718E-04     -X-  |<- line
|     3  |    3  |  2.155541E+00   2.155397E+00 |   1.4405E-04     -X-  |<- line
|     4  |    2  |  2.699468E+00   2.699466E+00 |   1.8149E-06     -X-  |<- line
|     5  |    3  |  1.032464E+01   1.032451E+01 |   1.2329E-04     -X-  |<- line
|     6  |    4  |  1.070750E+01   1.070492E+01 |   2.5840E-03     -X-  |<- line
|     7  |    4  |  1.151235E+01   1.151144E+01 |   9.1306E-04     -X-  |<- line
|     8  |    4  |  1.190463E+01   1.190424E+01 |   3.9545E-04     -X-  |<- line
|     9  |    3  |  1.646551E+01   1.646547E+01 |   4.0828E-05     -X-  |<- line
|    10  |    6  |  1.791505E+01   1.788193E+01 |   3.3120E-02     -X-  |<- line
|    11  |    6  |  1.923632E+01   1.922135E+01 |   1.4963E-02     -X-  |<- line
|    12  |    6  |  2.060932E+01   2.060620E+01 |   3.1204E-03     -X-  |<- line
|    13  |    8  |  2.241586E+01   2.238341E+01 |   3.2451E-02     -X-  |<- line
|    14  |   11  |  2.383217E+01   2.382162E+01 |   1.0551E-02     -X-  |<- line
  +         BS Iteration:   2 of (up to)   60, Time:     0.01s.       +
|     1  |    1  | -1.675383E+00  -1.675383E+00 |   4.9002E-08     -X-  |<- line
|     2  |    1  | -9.562422E-01  -9.562422E-01 |   9.5117E-09     -X-  |<- line
|     3  |    1  |  2.155397E+00   2.155397E+00 |   4.7859E-08     -X-  |<- line
|     4  |    1  |  2.699466E+00   2.699466E+00 |   6.0377E-09     -X-  |<- line
|     5  |    1  |  1.032451E+01   1.032451E+01 |   2.0186E-08     -X-  |<- line
|     6  |    1  |  1.070491E+01   1.070491E+01 |   5.6746E-08     -X-  |<- line
|     7  |    1  |  1.151144E+01   1.151144E+01 |   2.7941E-08     -X-  |<- line
|     8  |    1  |  1.190424E+01   1.190424E+01 |   1.1699E-08     -X-  |<- line
|     9  |    1  |  1.646547E+01   1.646547E+01 |   1.8210E-08     -X-  |<- line
|    10  |    2  |  1.788184E+01   1.788184E+01 |   1.6373E-06     -X-  |<- line
|    11  |    2  |  1.922141E+01   1.922141E+01 |   2.3446E-06     -X-  |<- line
|    12  |    1  |  2.060620E+01   2.060620E+01 |   2.1330E-07     -X-  |<- line
|    13  |    2  |  2.238341E+01   2.238341E+01 |   2.0060E-06     -X-  |<- line
|    14  |    1  |  2.382165E+01   2.382165E+01 |   7.0877E-07     -X-  |<- line
  +         BS Iteration:   3 of (up to)   60, Time:     0.00s.       +
|     1  |    1  | -1.675383E+00  -1.675383E+00 |   5.9338E-09     -X-  |<- line
|     2  |    1  | -9.562422E-01  -9.562422E-01 |   1.2907E-09     -X-  |<- line
|     3  |    1  |  2.155397E+00   2.155397E+00 |   5.6145E-09     -X-  |<- line
|     4  |    1  |  2.699466E+00   2.699466E+00 |   7.0165E-10     -X-  |<- line
|     5  |    1  |  1.032451E+01   1.032451E+01 |   1.7402E-09     -X-  |<- line
|     6  |    1  |  1.070491E+01   1.070491E+01 |   3.2905E-09     -X-  |<- line
|     7  |    1  |  1.151144E+01   1.151144E+01 |   1.3830E-09     -X-  |<- line
|     8  |    1  |  1.190424E+01   1.190424E+01 |   6.2113E-10     -X-  |<- line
|     9  |    1  |  1.646547E+01   1.646547E+01 |   2.0098E-09     -X-  |<- line
|    10  |    1  |  1.788184E+01   1.788184E+01 |   7.8900E-09     -X-  |<- line
|    11  |    1  |  1.922141E+01   1.922141E+01 |   1.9711E-08     -X-  |<- line
|    12  |    1  |  2.060620E+01   2.060620E+01 |   2.2076E-08     -X-  |<- line
|    13  |    1  |  2.238341E+01   2.238341E+01 |   3.8421E-08     -X-  |<- line
|    14  |    1  |  2.382165E+01   2.382165E+01 |   5.0130E-08     -X-  |<- line
  +         BS Iteration:   4 of (up to)   60, Time:     0.00s.       +
  +         BS Iteration:   5 of (up to)   60, Time:     0.00s.       +
  +   Spin= 1 of  1, K-point=   2 of   44 completed, Time:     0.06s. +
|     1  |   25  |  3.306708E+01  -2.030839E+00 |   3.5098E+01     X--  |<- line
|     2  |   24  |  3.428484E+01  -6.773260E-01 |   3.4962E+01     -X-  |<- line
|     3  |   25  |  4.138767E+01   2.091615E+00 |   3.9296E+01     X--  |<- line
|     4  |   25  |  4.521083E+01   3.085666E+00 |   4.2125E+01     X--  |<- line
|     5  |   25  |  4.668961E+01   1.000741E+01 |   3.6682E+01     X--  |<- line
|     6  |   25  |  4.765848E+01   1.036420E+01 |   3.7294E+01     X--  |<- line
|     7  |   25  |  5.379938E+01   1.204083E+01 |   4.1759E+01     X--  |<- line
|     8  |   25  |  5.422328E+01   1.238798E+01 |   4.1835E+01     X--  |<- line
|     9  |   25  |  5.826473E+01   1.535360E+01 |   4.2911E+01     X--  |<- line
|    10  |   25  |  5.949781E+01   1.805328E+01 |   4.1445E+01     X--  |<- line
|    11  |   24  |  6.007328E+01   1.886809E+01 |   4.1205E+01     -X-  |<- line
|    12  |   25  |  6.240859E+01   2.083549E+01 |   4.1573E+01     X--  |<- line
|    13  |   25  |  6.550948E+01   2.222807E+01 |   4.3281E+01     X--  |<- line
|    14  |   25  |  6.523109E+01   2.419571E+01 |   4.1035E+01     X--  |<- line
  +         BS Iteration:   1 of (up to)   60, Time:     0.04s.       +
|     1  |    1  | -2.030851E+00  -2.030852E+00 |   8.2695E-07     -X-  |<- line
|     2  |    1  | -6.773170E-01  -6.773171E-01 |   1.0567E-07     -X-  |<- line
|     3  |    2  |  2.091613E+00   2.091611E+00 |   1.6566E-06     -X-  |<- line
|     4  |    1  |  3.085669E+00   3.085668E+00 |   2.9956E-07     -X-  |<- line
|     5  |    5  |  9.998762E+00   9.993390E+00 |   5.3719E-03     -X-  |<- line
|     6  |    3  |  1.036578E+01   1.036572E+01 |   6.2512E-05     -X-  |<- line
|     7  |    4  |  1.199571E+01   1.199422E+01 |   1.4843E-03     -X-  |<- line
|     8  |    4  |  1.243471E+01   1.243451E+01 |   1.9241E-04     -X-  |<- line
|     9  |    2  |  1.535572E+01   1.535571E+01 |   7.0078E-06     -X-  |<- line
|    10  |    4  |  1.804794E+01   1.804727E+01 |   6.7540E-04     -X-  |<- line
|    11  |    2  |  1.887331E+01   1.887330E+01 |   6.9125E-06     -X-  |<- line
|    12  |    3  |  2.083690E+01   2.083688E+01 |   2.2736E-05     -X-  |<- line
|    13  |    5  |  2.222926E+01   2.222907E+01 |   1.9392E-04     -X-  |<- line
|    14  |   25  |  2.419658E+01   2.412914E+01 |   6.7441E-02     X--  |<- line
  +         BS Iteration:   2 of (up to)   60, Time:     0.01s.       +
|     1  |    1  | -2.030852E+00  -2.030852E+00 |   5.1421E-08     -X-  |<- line
|     2  |    1  | -6.773171E-01  -6.773172E-01 |   6.3696E-09     -X-  |<- line
|     3  |    1  |  2.091611E+00   2.091611E+00 |   5.4877E-09     -X-  |<- line
|     4  |    1  |  3.085668E+00   3.085668E+00 |   1.9762E-08     -X-  |<- line
|     5  |    1  |  9.993389E+00   9.993389E+00 |   5.6087E-09     -X-  |<- line
|     6  |    1  |  1.036572E+01   1.036572E+01 |   1.7521E-08     -X-  |<- line
|     7  |    1  |  1.199422E+01   1.199422E+01 |   2.4918E-08     -X-  |<- line
|     8  |    1  |  1.243452E+01   1.243452E+01 |   6.7754E-09     -X-  |<- line
|     9  |    1  |  1.535571E+01   1.535571E+01 |   2.8847E-08     -X-  |<- line
|    10  |    1  |  1.804727E+01   1.804727E+01 |   6.1997E-08     -X-  |<- line
|    11  |    1  |  1.887330E+01   1.887330E+01 |   9.6070E-08     -X-  |<- line
|    12  |    1  |  2.083688E+01   2.083688E+01 |   1.0077E-07     -X-  |<- line
|    13  |    1  |  2.222907E+01   2.222907E+01 |   5.5991E-08     -X-  |<- line
|    14  |   14  |  2.412914E+01   2.412745E+01 |   1.6886E-03     -X-  |<- line
  +         BS Iteration:   3 of (up to)   60, Time:     0.00s.       +
|     1  |    1  | -2.030852E+00  -2.030852E+00 |   5.9570E-09     -X-  |<- line
|     2  |    1  | -6.773172E-01  -6.773172E-01 |   7.9227E-10     -X-  |<- line
|     3  |    1  |  2.091611E+00   2.091611E+00 |   5.8198E-10     -X-  |<- line
|     4  |    1  |  3.085668E+00   3.085668E+00 |   2.3851E-09     -X-  |<- line
|     5  |    1  |  9.993389E+00   9.993389E+00 |   4.0336E-10     -X-  |<- line
|     6  |    1  |  1.036572E+01   1.036572E+01 |   1.5123E-09     -X-  |<- line
|     7  |    1  |  1.199422E+01   1.199422E+01 |   2.0968E-09     -X-  |<- line
|     8  |    1  |  1.243452E+01   1.243452E+01 |   4.1967E-10     -X-  |<- line
|     9  |    1  |  1.535571E+01   1.535571E+01 |   3.5762E-09     -X-  |<- line
|    10  |    1  |  1.804727E+01   1.804727E+01 |   5.8962E-09     -X-  |<- line
|    11  |    1  |  1.887330E+01   1.887330E+01 |   1.2670E-08     -X-  |<- line
|    12  |    1  |  2.083688E+01   2.083688E+01 |   1.6146E-08     -X-  |<- line
|    13  |    1  |  2.222907E+01   2.222907E+01 |   1.4394E-08     -X-  |<- line
|    14  |    1  |  2.412745E+01   2.412745E+01 |   3.3175E-08     -X-  |<- line
  +         BS Iteration:   4 of (up to)   60, Time:     0.00s.       +
  +         BS Iteration:   5 of (up to)   60, Time:     0.00s.       +
  +   Spin= 1 of  1, K-point=   3 of   44 completed, Time:     0.06s. +
|     1  |   23  |  2.859832E+01  -2.356334E+00 |   3.0955E+01     -X-  |<- line
|     2  |   18  |  3.491664E+01  -5.189062E-01 |   3.5436E+01     -X-  |<- line
|     3  |   25  |  3.765968E+01   2.234439E+00 |   3.5425E+01     X--  |<- line
|     4  |   25  |  4.039253E+01   3.503646E+00 |   3.6889E+01     X--  |<- line
|     5  |   25  |  4.294817E+01   9.734691E+00 |   3.3213E+01     X--  |<- line
|     6  |   25  |  4.755591E+01   1.000180E+01 |   3.7554E+01     X--  |<- line
|     7  |   25  |  4.735219E+01   1.261751E+01 |   3.4735E+01     X--  |<- line
|     8  |   25  |  5.280035E+01   1.299261E+01 |   3.9808E+01     X--  |<- line
|     9  |   25  |  5.691359E+01   1.412154E+01 |   4.2792E+01     X--  |<- line
|    10  |   25  |  5.657033E+01   1.795025E+01 |   3.8620E+01     X--  |<- line
|    11  |   25  |  6.046775E+01   1.861915E+01 |   4.1849E+01     X--  |<- line
|    12  |   23  |  6.079799E+01   1.996623E+01 |   4.0832E+01     -X-  |<- line
|    13  |   25  |  6.266971E+01   2.308033E+01 |   3.9589E+01     X--  |<- line
|    14  |   25  |  6.660327E+01   2.373620E+01 |   4.2867E+01     X--  |<- line
  +         BS Iteration:   1 of (up to)   60, Time:     0.04s.       +
|     1  |    1  | -2.356335E+00  -2.356335E+00 |   1.1932E-07     -X-  |<- line
|     2  |    1  | -5.189061E-01  -5.189062E-01 |   9.8872E-08     -X-  |<- line
|     3  |    2  |  2.234435E+00   2.234434E+00 |   1.7467E-06     -X-  |<- line
|     4  |    2  |  3.503647E+00   3.503646E+00 |   1.0729E-06     -X-  |<- line
|     5  |    4  |  9.728657E+00   9.725791E+00 |   2.8659E-03     -X-  |<- line
|     6  |    3  |  1.000387E+01   1.000380E+01 |   7.4473E-05     -X-  |<- line
|     7  |    4  |  1.260249E+01   1.260195E+01 |   5.4538E-04     -X-  |<- line
|     8  |    4  |  1.300670E+01   1.300646E+01 |   2.3470E-04     -X-  |<- line
|     9  |    2  |  1.412422E+01   1.412422E+01 |   6.4410E-06     -X-  |<- line
|    10  |    4  |  1.795041E+01   1.795010E+01 |   3.1785E-04     -X-  |<- line
|    11  |    5  |  1.861928E+01   1.861790E+01 |   1.3799E-03     -X-  |<- line
|    12  |    2  |  1.996766E+01   1.996765E+01 |   6.8254E-06     -X-  |<- line
|    13  |    6  |  2.308051E+01   2.308041E+01 |   9.3838E-05     -X-  |<- line
|    14  |   12  |  2.373652E+01   2.373330E+01 |   3.2215E-03     -X-  |<- line
  +         BS Iteration:   2 of (up to)   60, Time:     0.01s.       +
|     1  |    1  | -2.356335E+00  -2.356335E+00 |   9.0571E-09     -X-  |<- line
|     2  |    1  | -5.189062E-01  -5.189062E-01 |   6.5346E-09     -X-  |<- line
|     3  |    1  |  2.234434E+00   2.234434E+00 |   7.1118E-09     -X-  |<- line
|     4  |    1  |  3.503646E+00   3.503646E+00 |   4.1240E-09     -X-  |<- line
|     5  |    1  |  9.725791E+00   9.725791E+00 |   3.7626E-08     -X-  |<- line
|     6  |    1  |  1.000380E+01   1.000380E+01 |   1.9916E-08     -X-  |<- line
|     7  |    1  |  1.260195E+01   1.260195E+01 |   8.9024E-09     -X-  |<- line
|     8  |    1  |  1.300646E+01   1.300646E+01 |   4.3026E-09     -X-  |<- line
|     9  |    1  |  1.412422E+01   1.412422E+01 |   2.8096E-08     -X-  |<- line
|    10  |    1  |  1.795010E+01   1.795010E+01 |   4.4082E-08     -X-  |<- line
|    11  |    1  |  1.861790E+01   1.861790E+01 |   2.7217E-08     -X-  |<- line
|    12  |    1  |  1.996765E+01   1.996765E+01 |   5.9576E-08     -X-  |<- line
|    13  |    1  |  2.308041E+01   2.308041E+01 |   1.0322E-07     -X-  |<- line
|    14  |    1  |  2.373330E+01   2.373330E+01 |   1.8164E-07     -X-  |<- line
  +         BS Iteration:   3 of (up to)   60, Time:     0.00s.       +
  +         BS Iteration:   4 of (up to)   60, Time:     0.00s.       +
  +   Spin= 1 of  1, K-point=   4 of   44 completed, Time:     0.05s. +
|     1  |   25  |  3.023903E+01  -2.648442E+00 |   3.2887E+01     X--  |<- line
|     2  |   22  |  3.652592E+01  -4.831181E-01 |   3.7009E+01     -X-  |<- line
|     3  |   25  |  4.016468E+01   2.585760E+00 |   3.7579E+01     X--  |<- line
|     4  |   23  |  4.720334E+01   3.924662E+00 |   4.3279E+01     -X-  |<- line
|     5  |   25  |  4.394161E+01   9.559072E+00 |   3.4383E+01     X--  |<- line
|     6  |   25  |  4.723603E+01   9.655201E+00 |   3.7581E+01     X--  |<- line
|     7  |   25  |  5.087046E+01   1.295690E+01 |   3.7914E+01     X--  |<- line
|     8  |   25  |  5.169521E+01   1.331933E+01 |   3.8376E+01     X--  |<- line
|     9  |   25  |  5.498821E+01   1.355478E+01 |   4.1433E+01     X--  |<- line
|    10  |   25  |  5.920186E+01   1.757256E+01 |   4.1629E+01     X--  |<- line
|    11  |   23  |  6.007997E+01   1.840664E+01 |   4.1673E+01     -X-  |<- line
|    12  |   25  |  6.492663E+01   1.923960E+01 |   4.5687E+01     X--  |<- line
|    13  |   25  |  6.441101E+01   2.262007E+01 |   4.1791E+01     X--  |<- line
|    14  |   25  |  6.623960E+01   2.313087E+01 |   4.3109E+01     X--  |<- line
  +         BS Iteration:   1 of (up to)   60, Time:     0.04s.       +
|     1  |    2  | -2.648452E+00  -2.648454E+00 |   1.1224E-06     -X-  |<- line
|     2  |    1  | -4.831138E-01  -4.831140E-01 |   2.0672E-07     -X-  |<- line
|     3  |    3  |  2.585732E+00   2.585700E+00 |   3.1787E-05     -X-  |<- line
|     4  |    1  |  3.924664E+00   3.924663E+00 |   2.8303E-07     -X-  |<- line
[...]
  +          14       20.397098                                       +
  + ----------------------------------------------------------------- +
  +  Spin=1 kpt=   33 (  0.500000  0.000000  0.500000) kpt-group=  1  +
  + ----------------------------------------------------------------- +
  +                                                                   +
  +           1       -1.503058                                       +
  +           2       -1.499147                                       +
  +           3        3.423113                                       +
  +           4        3.423453                                       +
  +           5        7.016721                                       +
  +           6        7.018280                                       +
  +           7       16.608013                                       +
  +           8       16.612766                                       +
  +           9       18.046779                                       +
  +          10       18.048443                                       +
  +          11       19.475943                                       +
  +          12       19.476775                                       +
  +          13       19.543013                                       +
  +          14       19.546436                                       +
  + ----------------------------------------------------------------- +
  +  Spin=1 kpt=   34 (  0.500000  0.041667  0.541667) kpt-group=  1  +
  + ----------------------------------------------------------------- +
  +                                                                   +
  +           1       -1.491930                                       +
  +           2       -1.488008                                       +
  +           3        3.330268                                       +
  +           4        3.330687                                       +
  +           5        7.187273                                       +
  +           6        7.188820                                       +
  +           7       16.331676                                       +
  +           8       16.336486                                       +
  +           9       17.681802                                       +
  +          10       17.683786                                       +
  +          11       19.527202                                       +
  +          12       19.529267                                       +
  +          13       20.165736                                       +
  +          14       20.169373                                       +
  + ----------------------------------------------------------------- +
  +  Spin=1 kpt=   35 (  0.500000  0.083333  0.583333) kpt-group=  1  +
  + ----------------------------------------------------------------- +
  +                                                                   +
  +           1       -1.460752                                       +
  +           2       -1.456792                                       +
  +           3        3.102378                                       +
  +           4        3.102996                                       +
  +           5        7.649693                                       +
  +           6        7.651224                                       +
  +           7       15.497371                                       +
  +           8       15.502072                                       +
  +           9       17.424638                                       +
  +          10       17.427090                                       +
  +          11       19.572912                                       +
  +          12       19.574909                                       +
  +          13       21.303623                                       +
  +          14       21.307701                                       +
  + ----------------------------------------------------------------- +
  +  Spin=1 kpt=   36 (  0.500000  0.125000  0.625000) kpt-group=  1  +
  + ----------------------------------------------------------------- +
  +                                                                   +
  +           1       -1.408353                                       +
  +           2       -1.404347                                       +
  +           3        2.832765                                       +
  +           4        2.833650                                       +
  +           5        8.323012                                       +
  +           6        8.324584                                       +
  +           7       14.390231                                       +
  +           8       14.394727                                       +
  +           9       17.377424                                       +
  +          10       17.380124                                       +
  +          11       19.626567                                       +
  +          12       19.628417                                       +
  +          13       22.538500                                       +
  +          14       22.542764                                       +
  + ----------------------------------------------------------------- +
  +  Spin=1 kpt=   37 (  0.500000  0.166667  0.666667) kpt-group=  1  +
  + ----------------------------------------------------------------- +
  +                                                                   +
  +           1       -1.357656                                       +
  +           2       -1.353568                                       +
  +           3        2.594121                                       +
  +           4        2.595355                                       +
  +           5        9.133238                                       +
  +           6        9.134804                                       +
  +           7       13.279667                                       +
  +           8       13.284043                                       +
  +           9       17.364579                                       +
  +          10       17.367269                                       +
  +          11       19.698387                                       +
  +          12       19.700038                                       +
  +          13       23.385228                                       +
  +          14       23.386634                                       +
  + ----------------------------------------------------------------- +
  +  Spin=1 kpt=   38 (  0.500000  0.208333  0.708333) kpt-group=  1  +
  + ----------------------------------------------------------------- +
  +                                                                   +
  +           1       -1.321902                                       +
  +           2       -1.317713                                       +
  +           3        2.432428                                       +
  +           4        2.434062                                       +
  +           5       10.010117                                       +
  +           6       10.011712                                       +
  +           7       12.215547                                       +
  +           8       12.219807                                       +
  +           9       17.364332                                       +
  +          10       17.366886                                       +
  +          11       19.753758                                       +
  +          12       19.755016                                       +
  +          13       23.309694                                       +
  +          14       23.311745                                       +
  + ----------------------------------------------------------------- +
  +  Spin=1 kpt=   39 (  0.500000  0.250000  0.750000) kpt-group=  1  +
  + ----------------------------------------------------------------- +
  +                                                                   +
  +           1       -1.303094                                       +
  +           2       -1.298830                                       +
  +           3        2.376087                                       +
  +           4        2.378109                                       +
  +           5       10.702077                                       +
  +           6       10.704665                                       +
  +           7       11.491257                                       +
  +           8       11.494469                                       +
  +           9       17.391889                                       +
  +          10       17.394272                                       +
  +          11       19.777321                                       +
  +          12       19.778205                                       +
  +          13       23.270060                                       +
  +          14       23.272386                                       +
  + ----------------------------------------------------------------- +
  +  Spin=1 kpt=   40 (  0.475000  0.275000  0.750000) kpt-group=  1  +
  + ----------------------------------------------------------------- +
  +                                                                   +
  +           1       -1.515555                                       +
  +           2       -1.108585                                       +
  +           3        2.214379                                       +
  +           4        2.619237                                       +
  +           5        9.983064                                       +
  +           6       10.756646                                       +
  +           7       11.841054                                       +
  +           8       11.874344                                       +
  +           9       16.869482                                       +
  +          10       17.662248                                       +
  +          11       19.462572                                       +
  +          12       20.272431                                       +
  +          13       22.814369                                       +
  +          14       23.575969                                       +
  + ----------------------------------------------------------------- +
  +  Spin=1 kpt=   41 (  0.450000  0.300000  0.750000) kpt-group=  1  +
  + ----------------------------------------------------------------- +
  +                                                                   +
  +           1       -1.678752                                       +
  +           2       -0.989649                                       +
  +           3        2.084799                                       +
  +           4        2.970531                                       +
  +           5        9.104302                                       +
  +           6       10.695516                                       +
  +           7       12.377674                                       +
  +           8       12.566907                                       +
  +           9       16.301697                                       +
  +          10       17.370254                                       +
  +          11       19.659609                                       +
  +          12       20.819189                                       +
  +          13       22.498374                                       +
  +          14       23.454221                                       +
  + ----------------------------------------------------------------- +
  +  Spin=1 kpt=   42 (  0.425000  0.325000  0.750000) kpt-group=  1  +
  + ----------------------------------------------------------------- +
  +                                                                   +
  +           1       -1.795197                                       +
  +           2       -0.925416                                       +
  +           3        1.990748                                       +
  +           4        3.370974                                       +
  +           5        8.329849                                       +
  +           6       10.628990                                       +
  +           7       12.974941                                       +
  +           8       13.321180                                       +
  +           9       15.698547                                       +
  +          10       16.694111                                       +
  +          11       20.212761                                       +
  +          12       21.381029                                       +
  +          13       22.297454                                       +
  +          14       23.146248                                       +
  + ----------------------------------------------------------------- +
  +  Spin=1 kpt=   43 (  0.400000  0.350000  0.750000) kpt-group=  1  +
  + ----------------------------------------------------------------- +
  +                                                                   +
  +           1       -1.879533                                       +
  +           2       -0.895505                                       +
  +           3        1.933626                                       +
  +           4        3.715818                                       +
  +           5        7.756601                                       +
  +           6       10.572437                                       +
  +           7       13.577191                                       +
  +           8       14.097362                                       +
  +           9       15.091636                                       +
  +          10       15.895852                                       +
  +          11       20.824503                                       +
  +          12       21.902212                                       +
  +          13       22.203773                                       +
  +          14       22.803688                                       +
  + ----------------------------------------------------------------- +
  +  Spin=1 kpt=   44 (  0.375000  0.375000  0.750000) kpt-group=  1  +
  + ----------------------------------------------------------------- +
  +                                                                   +
  +           1       -1.906197                                       +
  +           2       -0.888483                                       +
  +           3        1.913400                                       +
  +           4        3.859805                                       +
  +           5        7.540482                                       +
  +           6       10.554050                                       +
  +           7       13.947965                                       +
  +           8       14.669386                                       +
  +           9       14.688307                                       +
  +          10       15.243271                                       +
  +          11       21.155708                                       +
  +          12       22.254736                                       +
  +          13       22.348525                                       +
  +          14       22.413906                                       +
  =====================================================================

Writing model to Si2.orbitals
Initialising basis set.

Standard grid dimensions:  12  12  12
Fine grid dimensions:      12  12  12

Plane wave load balancing: max    122 min    113 average    117
True cut-off energy of basis :   4.407
 Reassigning basis set.
True cut-off energy of basis :   4.407

 ******************** Ewald forces ********************
 *                                                    *
 *            Cartesian components (eV/A)             *
 * -------------------------------------------------- *
 *                   x            y            z      *
 *                                                    *
 * Si        1      0.00000      0.00000      0.00000 *
 * Si        2     -0.00000     -0.00000     -0.00000 *
 *                                                    *
 ******************************************************

 *************** Local potential forces ***************
 *                                                    *
 *            Cartesian components (eV/A)             *
 * -------------------------------------------------- *
 *                   x            y            z      *
 *                                                    *
 * Si        1      0.12010     -0.27526     -0.09148 *
 * Si        2     -0.12010      0.27526      0.09148 *
 *                                                    *
 ******************************************************

 ************* Non-local potential forces *************
 *                                                    *
 *            Cartesian components (eV/A)             *
 * -------------------------------------------------- *
 *                   x            y            z      *
 *                                                    *
 * Si        1      0.34989     -1.25535     -0.23422 *
 * Si        2     -0.34991      1.25537      0.23423 *
 *                                                    *
 ******************************************************

 *********** External Efield and/or dipole ************
 *                                                    *
 *            Cartesian components (eV/A)             *
 * -------------------------------------------------- *
 *                   x            y            z      *
 *                                                    *
 * Si        1      0.00000      0.00000      0.00000 *
 * Si        2      0.00000      0.00000      0.00000 *
 *                                                    *
 ******************************************************

 ***************** Symmetrised Forces *****************
 *                                                    *
 *            Cartesian components (eV/A)             *
 * -------------------------------------------------- *
 *                   x            y            z      *
 *                                                    *
 * Si        1      0.00000      0.00000      0.00000 *
 * Si        2     -0.00000      0.00000     -0.00000 *
 *                                                    *
 ******************************************************

 Pseudo atomic calculation performed for Si 3s2 3p2

 Converged in 16 iterations to a total energy of -102.0354 eV

Charge spilling parameter for spin component 1 = 0.78%
The total projected population is    8.000  -0.000

     Atomic Populations (Mulliken)
     -----------------------------
Species   Ion     s      p      d      f     Total  Charge (e)
==============================================================
  Si       1     1.35   2.65   0.00   0.00   4.00     0.00
  Si       2     1.35   2.65   0.00   0.00   4.00     0.00
==============================================================

            Bond              Population      Length (A)
============================================================
         Si 1 -- Si 2              2.99        2.33434
============================================================


Writing analysis data to Si2.castep_bin

Writing model to Si2.check
 
 A BibTeX formatted list of references used in this run has been written to 
 Si2.bib
 
Initialisation time =      0.08 s
Calculation time    =      2.88 s
Finalisation time   =      0.00 s
Total time          =      2.96 s
