 +-------------------------------------------------+
 |                                                 |
 |      CCC   AA    SSS  TTTTT  EEEEE  PPPP        |
 |     C     A  A  S       T    E      P   P       |
 |     C     AAAA   SS     T    EEE    PPPP        |
 |     C     A  A     S    T    E      P           |
 |      CCC  A  A  SSS     T    EEEEE  P           |
 |                                                 |
 +-------------------------------------------------+
 |                                                 |
 | Welcome to Academic Release CASTEP version 16.1 |          
 | Ab Initio Total Energy Program                  |
 |                                                 |
 | Authors:                                        |
 | M. Segall, M. Probert, C. Pickard, P. Hasnip,   |
 | S. Clark, K. Refson, J. R. Yates, M. Payne      |
 |                                                 |
 | Contributors:                                   |
 | P. Lindan, P. Haynes, J. White, V. Milman,      |
 | N. Govind, M. Gibson, P. Tulip, V. Cocula,      |
 | B. Montanari, D. Quigley, M. Glover,            |
 | L. Bernasconi, A. Perlov, M. Plummer,           |
 | E. McNellis, J. Meyer, J. Gale, D. Jochym       |
 | J. Aarons, B. Walker, R. Gillen, D. Jones       |
 | T. Green, I. J. Bush, C. J. Armstrong,          |
 | E. J. Higgins, E. L. Brown, M. S. McFly         |
 |                                                 |
 | Copyright (c) 2000 - 2015                       |
 |                                                 |
 |     Distributed under the terms of an           |
 |     Agreement between the United Kingdom        |
 |     Car-Parrinello (UKCP) Consortium,           |
 |     Daresbury Laboratory and Accelrys, Inc.     |
 |                                                 |
 | Please cite                                     |
 |                                                 |
 |     "First principles methods using CASTEP"     |
 |                                                 |
 |         Zeitschrift fuer Kristallographie       |
 |           220(5-6) pp. 567-570 (2005)           |
 |                                                 |
 | S. J. Clark, M. D. Segall, C. J. Pickard,       |
 | P. J. Hasnip, M. J. Probert, K. Refson,         |
 | M. C. Payne                                     |
 |                                                 |
 |       in all publications arising from          |
 |              your use of CASTEP                 |
 |                                                 |
 +-------------------------------------------------+


 Compiled for darwin_x86_64_gfortran5.0 on Fri, 19 Feb 2016 13:44:46 +0000
 from code version Version unavailable
 Compiler: GNU Fortran 5.3.0; Optimisation: intermediate
 MATHLIBS: default (LAPACK version 3.2.1)
 FFT Lib : default
 Fundamental constants values: CODATA 2010

 Run started: Mon, 22 Feb 2016 16:18:02 +0000

 Pseudo atomic calculation performed for Si 3s2 3p2

 Converged in 16 iterations to a total energy of -102.0354 eV

 Calculation not parallelised.

 ************************************ Title ************************************
 

 ***************************** General Parameters ******************************
  
 output verbosity                               : normal  (1)
 write checkpoint data to                       : Si2.check
 type of calculation                            : band structure
 stress calculation                             : off
 density difference calculation                 : off
 electron localisation func (ELF) calculation   : off
 Hirshfeld analysis                             : off
 unlimited duration calculation
 timing information                             : on
 memory usage estimate                          : on
 write final potential to formatted file        : off
 write final density to formatted file          : on
 write BibTeX reference list                    : on
 write OTFG pseudopotential files               : on
 checkpoint writing                             : both castep_bin and check files
  
 output         length unit                     : A
 output           mass unit                     : amu
 output           time unit                     : ps
 output         charge unit                     : e
 output           spin unit                     : hbar/2
 output         energy unit                     : eV
 output          force unit                     : eV/A
 output       velocity unit                     : A/ps
 output       pressure unit                     : GPa
 output     inv_length unit                     : 1/A
 output      frequency unit                     : cm-1
 output force constant unit                     : eV/A**2
 output         volume unit                     : A**3
 output   IR intensity unit                     : (D/A)**2/amu
 output         dipole unit                     : D
 output         efield unit                     : eV/A/e
 output        entropy unit                     : J/mol/K
  
 wavefunctions paging                           : none
 random number generator seed                   : randomised (161802540)
 data distribution                              : optimal for this architecture
 optimization strategy                          : maximize speed(+++)

 *********************** Exchange-Correlation Parameters ***********************
  
 using functional                               : Local Density Approximation
 relativistic treatment                         : Koelling-Harmon
 DFT+D: Semi-empirical dispersion correction    : off

 ************************* Pseudopotential Parameters **************************
  
 pseudopotential representation                 : reciprocal space
 <beta|phi> representation                      : reciprocal space
 spin-orbit coupling                            : off

 **************************** Basis Set Parameters *****************************
  
 basis set accuracy                             : MEDIUM
 plane wave basis set cut-off                   :   120.0000   eV
 size of standard grid                          :     1.7500
 size of   fine   gmax                          :     9.8213   1/A
 finite basis set correction                    : none

 **************************** Electronic Parameters ****************************
  
 number of  electrons                           :  8.000    
 net charge of system                           :  0.000    
 treating system as non-spin-polarized
 number of bands                                :          4

 ********************* Electronic Minimization Parameters **********************
  
 Method: Treating system as non-metallic,
         and number of  SD  steps               :          1
         and number of  CG  steps               :          4
  
 total energy / atom convergence tol.           : 0.1000E-04   eV
 max force / atom convergence tol.              : ignored
 convergence tolerance window                   :          3   cycles
 max. number of SCF cycles                      :         30
 periodic dipole correction                     : NONE

 *********************** Population Analysis Parameters ************************
  
 Population analysis with cutoff                :  3.000       A

 ************************** Band Structure Parameters **************************
  
 max. number of iterations                      :         60
 max. CG steps in BS calc                       :         25
 number of bands / k-point                      :         14
 band convergence tolerance                     : 0.1000E-05   eV
 write orbitals file                            : on

 *******************************************************************************
  

                           -------------------------------
                                      Unit Cell
                           -------------------------------
        Real Lattice(A)                      Reciprocal Lattice(1/A)
   2.6954645   2.6954645   0.0000000        1.1655107   1.1655107  -1.1655107
   2.6954645   0.0000000   2.6954645        1.1655107  -1.1655107   1.1655107
   0.0000000   2.6954645   2.6954645       -1.1655107   1.1655107   1.1655107

                       Lattice parameters(A)       Cell Angles
                    a =    3.811962          alpha =   60.000000
                    b =    3.811962          beta  =   60.000000
                    c =    3.811962          gamma =   60.000000

                       Current cell volume =   39.167950       A**3

                           -------------------------------
                                     Cell Contents
                           -------------------------------
                         Total number of ions in cell =    2
                      Total number of species in cell =    1
                        Max number of any one species =    2

            xxxxxxxxxxxxxxxxxxxxxxxxxxxxxxxxxxxxxxxxxxxxxxxxxxxxxxxxxxxx
            x  Element    Atom        Fractional coordinates of atoms  x
            x            Number           u          v          w      x
            x----------------------------------------------------------x
            x  Si           1         0.000000   0.000000   0.000000   x 
            x  Si           2         0.250000   0.250000   0.250000   x 
            xxxxxxxxxxxxxxxxxxxxxxxxxxxxxxxxxxxxxxxxxxxxxxxxxxxxxxxxxxxx


                         No user defined ionic velocities

                           -------------------------------
                                   Details of Species
                           -------------------------------

                               Mass of species in AMU
                                    Si   28.0855000

                          Electric Quadrupole Moment (Barn)
                                    Si    1.0000000 No Isotope Defined

                          Files used for pseudopotentials:
                                    Si Si_00.usp

                           -------------------------------
                              k-Points For BZ Sampling
                           -------------------------------
                       MP grid size for SCF calculation is  4  4  4
                            with an offset of   0.000  0.000  0.000
                       Number of kpoints used =            10

                           -------------------------------
                               Symmetry and Constraints
                           -------------------------------

                      Maximum deviation from symmetry =  0.00000         ANG

                      Number of symmetry operations   =          48
                      Number of ionic constraints     =           3
                      Point group of crystal =    32: Oh, m-3m, 4/m -3 2/m
                      Space group of crystal =   227: Fd-3m, F 4d 2 3 -1d

             Set iprint > 1 for details on symmetry rotations/translations

                         Centre of mass is constrained
             Set iprint > 1 for details of linear ionic constraints

                         Number of cell constraints= 5
                         Cell constraints are:  1 1 1 0 0 0

                         External pressure/stress (GPa)
                          0.00000   0.00000   0.00000
                                    0.00000   0.00000
                                              0.00000
  
+---------------- MEMORY AND SCRATCH DISK ESTIMATES PER PROCESS --------------+
|                                                     Memory          Disk    |
| Baseline code, static data and system overhead        0.0 MB         0.0 MB |
| BLAS internal memory storage                          0.0 MB         0.0 MB |
| Model and support data                                2.8 MB         0.0 MB |
| Electronic energy minimisation requirements           0.6 MB         0.0 MB |
| Force calculation requirements                        0.2 MB         0.0 MB |
|                                               ----------------------------- |
| Approx. total storage required per process            3.4 MB         0.0 MB |
|                                                                             |
| Requirements will fluctuate during execution and may exceed these estimates |
+-----------------------------------------------------------------------------+
------------------------------------------------------------------------ <-- SCF
SCF loop      Energy                           Energy gain       Timer   <-- SCF
                                               per atom          (sec)   <-- SCF
------------------------------------------------------------------------ <-- SCF
Initial   1.67259354E+002                                          0.15  <-- SCF
      1  -2.02099405E+002                    1.84679379E+002       0.23  <-- SCF
      2  -2.15924792E+002                    6.91269332E+000       0.30  <-- SCF
      3  -2.16090785E+002                    8.29967947E-002       0.37  <-- SCF
      4  -2.16090975E+002                    9.50461482E-005       0.44  <-- SCF
      5  -2.16090976E+002                    3.64193472E-007       0.52  <-- SCF
      6  -2.16090976E+002                    4.93820579E-009       0.59  <-- SCF
------------------------------------------------------------------------ <-- SCF
 
Final energy =  -216.0909760760     eV
(energy not corrected for finite basis set)
 

Writing analysis data to Si2.castep_bin

Writing model to Si2.check
  
+---------------- MEMORY AND SCRATCH DISK ESTIMATES PER PROCESS --------------+
|                                                     Memory          Disk    |
| Baseline code, static data and system overhead        0.0 MB         0.0 MB |
| BLAS internal memory storage                          0.0 MB         0.0 MB |
| Model and support data                                3.7 MB         0.0 MB |
| Band structure calculation requirements               4.1 MB         0.0 MB |
| Force calculation requirements                        0.2 MB         0.0 MB |
|                                               ----------------------------- |
| Approx. total storage required per process            7.8 MB         0.0 MB |
|                                                                             |
| Requirements will fluctuate during execution and may exceed these estimates |
+-----------------------------------------------------------------------------+
  =====================================================================
  +  Fermi energy for spin-degenerate system:     6.06222 eV          +
  +                                                                   +
  +       B A N D   S T R U C T U R E   C A L C U L A T I O N         +
  +      (General k-point calculation - complex wavefunctions)        +
  +                                                                   +
  + ================================================================= +
  +                                                                   +
  +     Band Structure Calculation: Progress report on root process   +
  +                                                                   +
  +   There are   44 BS k-points. Root process contains   44 of them. +
  +                                                                   +
  +   Spin= 1 of  1, K-point=   1 of   44 completed, Time:     0.05s. +
  +   Spin= 1 of  1, K-point=   2 of   44 completed, Time:     0.05s. +
  +   Spin= 1 of  1, K-point=   3 of   44 completed, Time:     0.05s. +
  +   Spin= 1 of  1, K-point=   4 of   44 completed, Time:     0.05s. +
  +   Spin= 1 of  1, K-point=   5 of   44 completed, Time:     0.05s. +
  +   Spin= 1 of  1, K-point=   6 of   44 completed, Time:     0.05s. +
  +   Spin= 1 of  1, K-point=   7 of   44 completed, Time:     0.05s. +
  +   Spin= 1 of  1, K-point=   8 of   44 completed, Time:     0.05s. +
  +   Spin= 1 of  1, K-point=   9 of   44 completed, Time:     0.05s. +
  +   Spin= 1 of  1, K-point=  10 of   44 completed, Time:     0.05s. +
  +   Spin= 1 of  1, K-point=  11 of   44 completed, Time:     0.05s. +
  +   Spin= 1 of  1, K-point=  12 of   44 completed, Time:     0.05s. +
  +   Spin= 1 of  1, K-point=  13 of   44 completed, Time:     0.05s. +
  +   Spin= 1 of  1, K-point=  14 of   44 completed, Time:     0.05s. +
  +   Spin= 1 of  1, K-point=  15 of   44 completed, Time:     0.05s. +
  +   Spin= 1 of  1, K-point=  16 of   44 completed, Time:     0.05s. +
  +   Spin= 1 of  1, K-point=  17 of   44 completed, Time:     0.05s. +
  +   Spin= 1 of  1, K-point=  18 of   44 completed, Time:     0.05s. +
  +   Spin= 1 of  1, K-point=  19 of   44 completed, Time:     0.05s. +
  +   Spin= 1 of  1, K-point=  20 of   44 completed, Time:     0.05s. +
  +   Spin= 1 of  1, K-point=  21 of   44 completed, Time:     0.05s. +
  +   Spin= 1 of  1, K-point=  22 of   44 completed, Time:     0.05s. +
  +   Spin= 1 of  1, K-point=  23 of   44 completed, Time:     0.05s. +
  +   Spin= 1 of  1, K-point=  24 of   44 completed, Time:     0.05s. +
  +   Spin= 1 of  1, K-point=  25 of   44 completed, Time:     0.05s. +
  +   Spin= 1 of  1, K-point=  26 of   44 completed, Time:     0.05s. +
  +   Spin= 1 of  1, K-point=  27 of   44 completed, Time:     0.05s. +
  +   Spin= 1 of  1, K-point=  28 of   44 completed, Time:     0.05s. +
  +   Spin= 1 of  1, K-point=  29 of   44 completed, Time:     0.06s. +
  +   Spin= 1 of  1, K-point=  30 of   44 completed, Time:     0.06s. +
  +   Spin= 1 of  1, K-point=  31 of   44 completed, Time:     0.05s. +
  +   Spin= 1 of  1, K-point=  32 of   44 completed, Time:     0.05s. +
  +   Spin= 1 of  1, K-point=  33 of   44 completed, Time:     0.05s. +
  +   Spin= 1 of  1, K-point=  34 of   44 completed, Time:     0.05s. +
  +   Spin= 1 of  1, K-point=  35 of   44 completed, Time:     0.05s. +
  +   Spin= 1 of  1, K-point=  36 of   44 completed, Time:     0.05s. +
  +   Spin= 1 of  1, K-point=  37 of   44 completed, Time:     0.06s. +
  +   Spin= 1 of  1, K-point=  38 of   44 completed, Time:     0.05s. +
  +   Spin= 1 of  1, K-point=  39 of   44 completed, Time:     0.05s. +
  +   Spin= 1 of  1, K-point=  40 of   44 completed, Time:     0.05s. +
  +   Spin= 1 of  1, K-point=  41 of   44 completed, Time:     0.05s. +
  +   Spin= 1 of  1, K-point=  42 of   44 completed, Time:     0.05s. +
  +   Spin= 1 of  1, K-point=  43 of   44 completed, Time:     0.06s. +
  +   Spin= 1 of  1, K-point=  44 of   44 completed, Time:     0.05s. +
  +   Finished BS calculation on root process (waiting for others).   +
  +                                                                   +
  + ================================================================= +
  +                       Electronic energies                         +
  +                       -------------------                         +
  +                                                                   +
  +   Band number   Energy in eV                                      +
  + ================================================================= +
  +                                                                   +
  + ----------------------------------------------------------------- +
  +  Spin=1 kpt=    1 (  0.500000  0.250000  0.750000) kpt-group=  1  +
  + ----------------------------------------------------------------- +
  +                                                                   +
  +           1       -1.303095                                       +
  +           2       -1.298830                                       +
  +           3        2.376087                                       +
  +           4        2.378109                                       +
  +           5       10.702077                                       +
  +           6       10.704665                                       +
  +           7       11.491257                                       +
  +           8       11.494469                                       +
  +           9       17.391889                                       +
  +          10       17.394272                                       +
  +          11       19.777321                                       +
  +          12       19.778205                                       +
  +          13       23.270060                                       +
  +          14       23.272386                                       +
  + ----------------------------------------------------------------- +
  +  Spin=1 kpt=    2 (  0.500000  0.277778  0.722222) kpt-group=  1  +
  + ----------------------------------------------------------------- +
  +                                                                   +
  +           1       -1.675384                                       +
  +           2       -0.956243                                       +
  +           3        2.155397                                       +
  +           4        2.699466                                       +
  +           5       10.324514                                       +
  +           6       10.704915                                       +
  +           7       11.511439                                       +
  +           8       11.904235                                       +
  +           9       16.465468                                       +
  +          10       17.881841                                       +
  +          11       19.221411                                       +
  +          12       20.606196                                       +
  +          13       22.383412                                       +
  +          14       23.821647                                       +
  + ----------------------------------------------------------------- +
  +  Spin=1 kpt=    3 (  0.500000  0.305556  0.694444) kpt-group=  1  +
  + ----------------------------------------------------------------- +
  +                                                                   +
  +           1       -2.030852                                       +
  +           2       -0.677317                                       +
  +           3        2.091611                                       +
  +           4        3.085668                                       +
  +           5        9.993389                                       +
  +           6       10.365717                                       +
  +           7       11.994220                                       +
  +           8       12.434515                                       +
  +           9       15.355710                                       +
  +          10       18.047267                                       +
  +          11       18.873304                                       +
  +          12       20.836876                                       +
  +          13       22.229070                                       +
  +          14       24.127451                                       +
  + ----------------------------------------------------------------- +
  +  Spin=1 kpt=    4 (  0.500000  0.333333  0.666667) kpt-group=  1  +
  + ----------------------------------------------------------------- +
  +                                                                   +
  +           1       -2.356335                                       +
  +           2       -0.518906                                       +
  +           3        2.234434                                       +
  +           4        3.503646                                       +
  +           5        9.725791                                       +
  +           6       10.003797                                       +
  +           7       12.601945                                       +
  +           8       13.006463                                       +
  +           9       14.124218                                       +
  +          10       17.950095                                       +
  +          11       18.617895                                       +
  +          12       19.967648                                       +
  +          13       23.080413                                       +
  +          14       23.733304                                       +
  + ----------------------------------------------------------------- +
  +  Spin=1 kpt=    5 (  0.500000  0.361111  0.638889) kpt-group=  1  +
  + ----------------------------------------------------------------- +
  +                                                                   +
  +           1       -2.648454                                       +
  +           2       -0.483114                                       +
  +           3        2.585700                                       +
  +           4        3.924663                                       +
  +           5        9.542510                                       +
  +           6        9.666136                                       +
  +           7       12.952590                                       +
  +           8       13.288288                                       +
  +           9       13.586103                                       +
  +          10       17.567556                                       +
  +          11       18.410019                                       +
  +          12       19.245517                                       +
  +          13       22.618532                                       +
  +          14       23.130202                                       +
  + ----------------------------------------------------------------- +
  +  Spin=1 kpt=    6 (  0.500000  0.388889  0.611111) kpt-group=  1  +
  + ----------------------------------------------------------------- +
  +                                                                   +
  +           1       -2.886398                                       +
  +           2       -0.523619                                       +
  +           3        3.099175                                       +
  +           4        4.319863                                       +
  +           5        9.354719                                       +
  +           6        9.464475                                       +
  +           7       11.887312                                       +
  +           8       14.030797                                       +
  +           9       14.127126                                       +
  +          10       16.995895                                       +
  +          11       18.238669                                       +
  +          12       18.839875                                       +
  +          13       21.851526                                       +
  +          14       22.028988                                       +
  + ----------------------------------------------------------------- +
  +  Spin=1 kpt=    7 (  0.500000  0.416667  0.583333) kpt-group=  1  +
  + ----------------------------------------------------------------- +
  +                                                                   +
  +           1       -3.077260                                       +
  +           2       -0.593609                                       +
  +           3        3.706305                                       +
  +           4        4.657262                                       +
  +           5        9.037531                                       +
  +           6        9.476822                                       +
  +           7       10.941743                                       +
  +           8       14.474912                                       +
  +           9       14.887567                                       +
  +          10       16.584277                                       +
  +          11       18.104935                                       +
  +          12       18.603213                                       +
  +          13       20.895495                                       +
  +          14       21.048083                                       +
  + ----------------------------------------------------------------- +
  +  Spin=1 kpt=    8 (  0.500000  0.444444  0.555556) kpt-group=  1  +
  + ----------------------------------------------------------------- +
  +                                                                   +
  +           1       -3.200075                                       +
  +           2       -0.659138                                       +
  +           3        4.343794                                       +
  +           4        4.915572                                       +
  +           5        8.654437                                       +
  +           6        9.576972                                       +
  +           7       10.242216                                       +
  +           8       14.379009                                       +
  +           9       15.789008                                       +
  +          10       16.704979                                       +
  +          11       18.006264                                       +
  +          12       18.446919                                       +
  +          13       19.802389                                       +
  +          14       20.301059                                       +
  + ----------------------------------------------------------------- +
  +  Spin=1 kpt=    9 (  0.500000  0.472222  0.527778) kpt-group=  1  +
  + ----------------------------------------------------------------- +
  +                                                                   +
  +           1       -3.283783                                       +
  +           2       -0.706108                                       +
  +           3        4.886760                                       +
  +           4        5.072215                                       +
  +           5        8.227486                                       +
  +           6        9.685031                                       +
  +           7        9.842359                                       +
  +           8       14.094310                                       +
  +           9       16.710647                                       +
  +          10       17.181096                                       +
  +          11       17.916780                                       +
  +          12       18.230811                                       +
  +          13       18.733352                                       +
  +          14       19.704486                                       +
  + ----------------------------------------------------------------- +
  +  Spin=1 kpt=   10 (  0.500000  0.500000  0.500000) kpt-group=  1  +
  + ----------------------------------------------------------------- +
  +                                                                   +
  +           1       -3.313595                                       +
  +           2       -0.725832                                       +
  +           3        5.122999                                       +
  +           4        5.125769                                       +
  +           5        8.010796                                       +
  +           6        9.711579                                       +
  +           7        9.715987                                       +
  +           8       13.959443                                       +
  +           9       17.555829                                       +
  +          10       17.556751                                       +
  +          11       17.759547                                       +
  +          12       17.951844                                       +
  +          13       17.955032                                       +
  +          14       19.466906                                       +
  + ----------------------------------------------------------------- +
  +  Spin=1 kpt=   11 (  0.454545  0.454545  0.454545) kpt-group=  1  +
  + ----------------------------------------------------------------- +
  +                                                                   +
  +           1       -3.432397                                       +
  +           2       -0.555007                                       +
  +           3        5.138180                                       +
  +           4        5.140949                                       +
  +           5        8.028077                                       +
  +           6        9.729334                                       +
  +           7        9.733745                                       +
  +           8       13.987085                                       +
  +           9       16.775293                                       +
  +          10       16.776087                                       +
  +          11       17.382992                                       +
  +          12       18.803047                                       +
  +          13       18.804536                                       +
  +          14       19.804418                                       +
  + ----------------------------------------------------------------- +
  +  Spin=1 kpt=   12 (  0.409091  0.409091  0.409091) kpt-group=  1  +
  + ----------------------------------------------------------------- +
  +                                                                   +
  +           1       -3.713471                                       +
  +           2       -0.110258                                       +
  +           3        5.185373                                       +
  +           4        5.188132                                       +
  +           5        8.084860                                       +
  +           6        9.805912                                       +
  +           7        9.810305                                       +
  +           8       14.067519                                       +
  +           9       15.921693                                       +
  +          10       15.922720                                       +
  +          11       16.668307                                       +
  +          12       19.920020                                       +
  +          13       19.921227                                       +
  +          14       20.321609                                       +
  + ----------------------------------------------------------------- +
  +  Spin=1 kpt=   13 (  0.363636  0.363636  0.363636) kpt-group=  1  +
  + ----------------------------------------------------------------- +
  +                                                                   +
  +           1       -4.065078                                       +
  +           2        0.494064                                       +
  +           3        5.259526                                       +
  +           4        5.262296                                       +
  +           5        8.169330                                       +
  +           6        9.866025                                       +
  +           7        9.870415                                       +
  +           8       14.152332                                       +
  +           9       15.081654                                       +
  +          10       15.082828                                       +
  +          11       15.924397                                       +
  +          12       20.381875                                       +
  +          13       21.002171                                       +
  +          14       21.003146                                       +
  + ----------------------------------------------------------------- +
  +  Spin=1 kpt=   14 (  0.318182  0.318182  0.318182) kpt-group=  1  +
  + ----------------------------------------------------------------- +
  +                                                                   +
  +           1       -4.417417                                       +
  +           2        1.203383                                       +
  +           3        5.364616                                       +
  +           4        5.367402                                       +
  +           5        8.286702                                       +
  +           6        9.919643                                       +
  +           7        9.924000                                       +
  +           8       14.111755                                       +
  +           9       14.453513                                       +
  +          10       14.454715                                       +
  +          11       15.354092                                       +
  +          12       19.725631                                       +
  +          13       21.940197                                       +
  +          14       21.940383                                       +
  + ----------------------------------------------------------------- +
  +  Spin=1 kpt=   15 (  0.272727  0.272727  0.272727) kpt-group=  1  +
  + ----------------------------------------------------------------- +
  +                                                                   +
  +           1       -4.742794                                       +
  +           2        1.979404                                       +
  +           3        5.497796                                       +
  +           4        5.500614                                       +
  +           5        8.389361                                       +
  +           6        9.927878                                       +
  +           7        9.932121                                       +
  +           8       13.671018                                       +
  +           9       14.022395                                       +
  +          10       14.023503                                       +
  +          11       15.223718                                       +
  +          12       18.707675                                       +
  +          13       21.922981                                       +
  +          14       21.924651                                       +
  + ----------------------------------------------------------------- +
  +  Spin=1 kpt=   16 (  0.227273  0.227273  0.227273) kpt-group=  1  +
  + ----------------------------------------------------------------- +
  +                                                                   +
  +           1       -5.030172                                       +
  +           2        2.797715                                       +
  +           3        5.654945                                       +
  +           4        5.657835                                       +
  +           5        8.503523                                       +
  +           6        9.843344                                       +
  +           7        9.847327                                       +
  +           8       12.958841                                       +
  +           9       13.707994                                       +
  +          10       13.708884                                       +
  +          11       15.349373                                       +
  +          12       17.773162                                       +
  +          13       20.990034                                       +
  +          14       20.992121                                       +
  + ----------------------------------------------------------------- +
  +  Spin=1 kpt=   17 (  0.181818  0.181818  0.181818) kpt-group=  1  +
  + ----------------------------------------------------------------- +
  +                                                                   +
  +           1       -5.269215                                       +
  +           2        3.659910                                       +
  +           3        5.830872                                       +
  +           4        5.833878                                       +
  +           5        8.693904                                       +
  +           6        9.665840                                       +
  +           7        9.669499                                       +
  +           8       12.172023                                       +
  +           9       13.677705                                       +
  +          10       13.678250                                       +
  +          11       15.396908                                       +
  +          12       17.136246                                       +
  +          13       20.052274                                       +
  +          14       20.054453                                       +
  + ----------------------------------------------------------------- +
  +  Spin=1 kpt=   18 (  0.136364  0.136364  0.136364) kpt-group=  1  +
  + ----------------------------------------------------------------- +
  +                                                                   +
  +           1       -5.458920                                       +
  +           2        4.528878                                       +
  +           3        6.014105                                       +
  +           4        6.017285                                       +
  +           5        8.860625                                       +
  +           6        9.423848                                       +
  +           7        9.427260                                       +
  +           8       11.372337                                       +
  +           9       13.827066                                       +
  +          10       13.827361                                       +
  +          11       15.096764                                       +
  +          12       17.041590                                       +
  +          13       19.178921                                       +
  +          14       19.181181                                       +
  + ----------------------------------------------------------------- +
  +  Spin=1 kpt=   19 (  0.090909  0.090909  0.090909) kpt-group=  1  +
  + ----------------------------------------------------------------- +
  +                                                                   +
  +           1       -5.584646                                       +
  +           2        5.363984                                       +
  +           3        6.203157                                       +
  +           4        6.206536                                       +
  +           5        8.982406                                       +
  +           6        9.177454                                       +
  +           7        9.180791                                       +
  +           8       10.621779                                       +
  +           9       14.085382                                       +
  +          10       14.085653                                       +
  +          11       14.651658                                       +
  +          12       17.296001                                       +
  +          13       18.461969                                       +
  +          14       18.464342                                       +
  + ----------------------------------------------------------------- +
  +  Spin=1 kpt=   20 (  0.045455  0.045455  0.045455) kpt-group=  1  +
  + ----------------------------------------------------------------- +
  +                                                                   +
  +           1       -5.662173                                       +
  +           2        6.077167                                       +
  +           3        6.331840                                       +
  +           4        6.335452                                       +
  +           5        8.989212                                       +
  +           6        8.991374                                       +
  +           7        8.994708                                       +
  +           8       10.061570                                       +
  +           9       14.316903                                       +
  +          10       14.331114                                       +
  +          11       14.331409                                       +
  +          12       17.608034                                       +
  +          13       17.931171                                       +
  +          14       17.933671                                       +
  + ----------------------------------------------------------------- +
  +  Spin=1 kpt=   21 (  0.000000  0.000000  0.000000) kpt-group=  1  +
  + ----------------------------------------------------------------- +
  +                                                                   +
  +           1       -5.689981                                       +
  +           2        6.379835                                       +
  +           3        6.382076                                       +
  +           4        6.384538                                       +
  +           5        8.921063                                       +
  +           6        8.924263                                       +
  +           7        8.926170                                       +
  +           8        9.871783                                       +
  +           9       14.193184                                       +
  +          10       14.438682                                       +
  +          11       14.439001                                       +
  +          12       17.729672                                       +
  +          13       17.731792                                       +
  +          14       17.733001                                       +
  + ----------------------------------------------------------------- +
  +  Spin=1 kpt=   22 (  0.041667  0.000000  0.041667) kpt-group=  1  +
  + ----------------------------------------------------------------- +
  +                                                                   +
  +           1       -5.658811                                       +
  +           2        6.186550                                       +
  +           3        6.248775                                       +
  +           4        6.251704                                       +
  +           5        8.846038                                       +
  +           6        9.091663                                       +
  +           7        9.095863                                       +
  +           8       10.059834                                       +
  +           9       14.170191                                       +
  +          10       14.331832                                       +
  +          11       14.473520                                       +
  +          12       17.787498                                       +
  +          13       17.790297                                       +
  +          14       17.914526                                       +
  + ----------------------------------------------------------------- +
  +  Spin=1 kpt=   23 (  0.083333  0.000000  0.083333) kpt-group=  1  +
  + ----------------------------------------------------------------- +
  +                                                                   +
  +           1       -5.572857                                       +
  +           2        5.694547                                       +
  +           3        5.919234                                       +
  +           4        5.921448                                       +
  +           5        8.636861                                       +
  +           6        9.523942                                       +
  +           7        9.527403                                       +
  +           8       10.493947                                       +
  +           9       13.581624                                       +
  +          10       14.577367                                       +
  +          11       14.714804                                       +
  +          12       17.939690                                       +
  +          13       17.942477                                       +
  +          14       18.301001                                       +
  + ----------------------------------------------------------------- +
  +  Spin=1 kpt=   24 (  0.125000  0.000000  0.125000) kpt-group=  1  +
  + ----------------------------------------------------------------- +
  +                                                                   +
  +           1       -5.434076                                       +
  +           2        5.036283                                       +
  +           3        5.515800                                       +
  +           4        5.517523                                       +
  +           5        8.348316                                       +
  +           6       10.101713                                       +
  +           7       10.104582                                       +
  +           8       10.865951                                       +
  +           9       13.075321                                       +
  +          10       14.750036                                       +
  +          11       15.284087                                       +
  +          12       18.198696                                       +
  +          13       18.201485                                       +
  +          14       18.712408                                       +
  + ----------------------------------------------------------------- +
  +  Spin=1 kpt=   25 (  0.166667  0.000000  0.166667) kpt-group=  1  +
  + ----------------------------------------------------------------- +
  +                                                                   +
  +           1       -5.219414                                       +
  +           2        4.332397                                       +
  +           3        5.118958                                       +
  +           4        5.120262                                       +
  +           5        8.031480                                       +
  +           6       10.739156                                       +
  +           7       10.759598                                       +
  +           8       10.762112                                       +
  +           9       13.160632                                       +
  +          10       14.992155                                       +
  +          11       16.009683                                       +
  +          12       18.592472                                       +
  +          13       18.595271                                       +
  +          14       19.171850                                       +
  + ----------------------------------------------------------------- +
  +  Spin=1 kpt=   26 (  0.208333  0.000000  0.208333) kpt-group=  1  +
  + ----------------------------------------------------------------- +
  +                                                                   +
  +           1       -4.949246                                       +
  +           2        3.607919                                       +
  +           3        4.742610                                       +
  +           4        4.743603                                       +
  +           5        7.717354                                       +
  +           6       10.165664                                       +
  +           7       11.479557                                       +
  +           8       11.481718                                       +
  +           9       13.785054                                       +
  +          10       15.308653                                       +
  +          11       16.827713                                       +
  +          12       19.085369                                       +
  +          13       19.088182                                       +
  +          14       19.772255                                       +
  + ----------------------------------------------------------------- +
  +  Spin=1 kpt=   27 (  0.250000  0.000000  0.250000) kpt-group=  1  +
  + ----------------------------------------------------------------- +
  +                                                                   +
  +           1       -4.615791                                       +
  +           2        2.855650                                       +
  +           3        4.404079                                       +
  +           4        4.404864                                       +
  +           5        7.436209                                       +
  +           6        9.504012                                       +
  +           7       12.216599                                       +
  +           8       12.218600                                       +
  +           9       14.600296                                       +
  +          10       15.688433                                       +
  +          11       17.700578                                       +
  +          12       19.658952                                       +
  +          13       19.661815                                       +
  +          14       20.340088                                       +
  + ----------------------------------------------------------------- +
  +  Spin=1 kpt=   28 (  0.291667  0.000000  0.291667) kpt-group=  1  +
  + ----------------------------------------------------------------- +
  +                                                                   +
  +           1       -4.224773                                       +
  +           2        2.098604                                       +
  +           3        4.109958                                       +
  +           4        4.110592                                       +
  +           5        7.200749                                       +
  +           6        8.876739                                       +
  +           7       12.975943                                       +
  +           8       12.977868                                       +
  +           9       15.477973                                       +
  +          10       16.136983                                       +
  +          11       18.573244                                       +
  +          12       20.223675                                       +
  +          13       20.226606                                       +
  +          14       21.003046                                       +
  + ----------------------------------------------------------------- +
  +  Spin=1 kpt=   29 (  0.333333  0.000000  0.333333) kpt-group=  1  +
  + ----------------------------------------------------------------- +
  +                                                                   +
  +           1       -3.772851                                       +
  +           2        1.357212                                       +
  +           3        3.867213                                       +
  +           4        3.867715                                       +
  +           5        7.046042                                       +
  +           6        8.338604                                       +
  +           7       13.835827                                       +
  +           8       13.837970                                       +
  +           9       16.369930                                       +
  +          10       16.684570                                       +
  +          11       19.385681                                       +
  +          12       20.593666                                       +
  +          13       20.596261                                       +
  +          14       21.804555                                       +
  + ----------------------------------------------------------------- +
  +  Spin=1 kpt=   30 (  0.375000  0.000000  0.375000) kpt-group=  1  +
  + ----------------------------------------------------------------- +
  +                                                                   +
  +           1       -3.282373                                       +
  +           2        0.608161                                       +
  +           3        3.674079                                       +
  +           4        3.674506                                       +
  +           5        6.918738                                       +
  +           6        7.864760                                       +
  +           7       14.660106                                       +
  +           8       14.662566                                       +
  +           9       17.233012                                       +
  +          10       17.390718                                       +
  +          11       19.952164                                       +
  +          12       20.066890                                       +
  +          13       20.068145                                       +
  +          14       22.299096                                       +
  + ----------------------------------------------------------------- +
  +  Spin=1 kpt=   31 (  0.416667  0.000000  0.416667) kpt-group=  1  +
  + ----------------------------------------------------------------- +
  +                                                                   +
  +           1       -2.733106                                       +
  +           2       -0.121616                                       +
  +           3        3.535001                                       +
  +           4        3.535378                                       +
  +           5        6.880449                                       +
  +           6        7.492031                                       +
  +           7       15.449053                                       +
  +           8       15.451832                                       +
  +           9       18.041000                                       +
  +          10       18.057570                                       +
  +          11       19.274293                                       +
  +          12       19.274799                                       +
  +          13       20.159274                                       +
  +          14       21.315540                                       +
  + ----------------------------------------------------------------- +
  +  Spin=1 kpt=   32 (  0.458333  0.000000  0.458333) kpt-group=  1  +
  + ----------------------------------------------------------------- +
  +                                                                   +
  +           1       -2.138222                                       +
  +           2       -0.826914                                       +
  +           3        3.451135                                       +
  +           4        3.451484                                       +
  +           5        6.908904                                       +
  +           6        7.210582                                       +
  +           7       16.192152                                       +
  +           8       16.195715                                       +
  +           9       18.484054                                       +
  +          10       18.484483                                       +
  +          11       18.759170                                       +
  +          12       18.817681                                       +
  +          13       19.963104                                       +
  +          14       20.397098                                       +
  + ----------------------------------------------------------------- +
  +  Spin=1 kpt=   33 (  0.500000  0.000000  0.500000) kpt-group=  1  +
  + ----------------------------------------------------------------- +
  +                                                                   +
  +           1       -1.503058                                       +
  +           2       -1.499147                                       +
  +           3        3.423113                                       +
  +           4        3.423453                                       +
  +           5        7.016721                                       +
  +           6        7.018280                                       +
  +           7       16.608013                                       +
  +           8       16.612766                                       +
  +           9       18.046779                                       +
  +          10       18.048442                                       +
  +          11       19.475943                                       +
  +          12       19.476775                                       +
  +          13       19.543012                                       +
  +          14       19.546436                                       +
  + ----------------------------------------------------------------- +
  +  Spin=1 kpt=   34 (  0.500000  0.041667  0.541667) kpt-group=  1  +
  + ----------------------------------------------------------------- +
  +                                                                   +
  +           1       -1.491931                                       +
  +           2       -1.488008                                       +
  +           3        3.330268                                       +
  +           4        3.330687                                       +
  +           5        7.187273                                       +
  +           6        7.188820                                       +
  +           7       16.331676                                       +
  +           8       16.336485                                       +
  +           9       17.681802                                       +
  +          10       17.683786                                       +
  +          11       19.527202                                       +
  +          12       19.529266                                       +
  +          13       20.165736                                       +
  +          14       20.169373                                       +
  + ----------------------------------------------------------------- +
  +  Spin=1 kpt=   35 (  0.500000  0.083333  0.583333) kpt-group=  1  +
  + ----------------------------------------------------------------- +
  +                                                                   +
  +           1       -1.460752                                       +
  +           2       -1.456792                                       +
  +           3        3.102378                                       +
  +           4        3.102996                                       +
  +           5        7.649693                                       +
  +           6        7.651224                                       +
  +           7       15.497371                                       +
  +           8       15.502072                                       +
  +           9       17.424638                                       +
  +          10       17.427090                                       +
  +          11       19.572912                                       +
  +          12       19.574908                                       +
  +          13       21.303622                                       +
  +          14       21.307700                                       +
  + ----------------------------------------------------------------- +
  +  Spin=1 kpt=   36 (  0.500000  0.125000  0.625000) kpt-group=  1  +
  + ----------------------------------------------------------------- +
  +                                                                   +
  +           1       -1.408353                                       +
  +           2       -1.404348                                       +
  +           3        2.832765                                       +
  +           4        2.833650                                       +
  +           5        8.323012                                       +
  +           6        8.324584                                       +
  +           7       14.390231                                       +
  +           8       14.394727                                       +
  +           9       17.377424                                       +
  +          10       17.380124                                       +
  +          11       19.626567                                       +
  +          12       19.628417                                       +
  +          13       22.538500                                       +
  +          14       22.542764                                       +
  + ----------------------------------------------------------------- +
  +  Spin=1 kpt=   37 (  0.500000  0.166667  0.666667) kpt-group=  1  +
  + ----------------------------------------------------------------- +
  +                                                                   +
  +           1       -1.357656                                       +
  +           2       -1.353568                                       +
  +           3        2.594121                                       +
  +           4        2.595355                                       +
  +           5        9.133238                                       +
  +           6        9.134804                                       +
  +           7       13.279667                                       +
  +           8       13.284043                                       +
  +           9       17.364579                                       +
  +          10       17.367269                                       +
  +          11       19.698387                                       +
  +          12       19.700038                                       +
  +          13       23.385228                                       +
  +          14       23.386634                                       +
  + ----------------------------------------------------------------- +
  +  Spin=1 kpt=   38 (  0.500000  0.208333  0.708333) kpt-group=  1  +
  + ----------------------------------------------------------------- +
  +                                                                   +
  +           1       -1.321902                                       +
  +           2       -1.317713                                       +
  +           3        2.432428                                       +
  +           4        2.434062                                       +
  +           5       10.010116                                       +
  +           6       10.011712                                       +
  +           7       12.215547                                       +
  +           8       12.219807                                       +
  +           9       17.364332                                       +
  +          10       17.366886                                       +
  +          11       19.753758                                       +
  +          12       19.755015                                       +
  +          13       23.309694                                       +
  +          14       23.311745                                       +
  + ----------------------------------------------------------------- +
  +  Spin=1 kpt=   39 (  0.500000  0.250000  0.750000) kpt-group=  1  +
  + ----------------------------------------------------------------- +
  +                                                                   +
  +           1       -1.303095                                       +
  +           2       -1.298830                                       +
  +           3        2.376087                                       +
  +           4        2.378109                                       +
  +           5       10.702077                                       +
  +           6       10.704665                                       +
  +           7       11.491257                                       +
  +           8       11.494469                                       +
  +           9       17.391889                                       +
  +          10       17.394272                                       +
  +          11       19.777321                                       +
  +          12       19.778205                                       +
  +          13       23.270060                                       +
  +          14       23.272386                                       +
  + ----------------------------------------------------------------- +
  +  Spin=1 kpt=   40 (  0.475000  0.275000  0.750000) kpt-group=  1  +
  + ----------------------------------------------------------------- +
  +                                                                   +
  +           1       -1.515555                                       +
  +           2       -1.108585                                       +
  +           3        2.214379                                       +
  +           4        2.619237                                       +
  +           5        9.983064                                       +
  +           6       10.756646                                       +
  +           7       11.841054                                       +
  +           8       11.874344                                       +
  +           9       16.869482                                       +
  +          10       17.662248                                       +
  +          11       19.462571                                       +
  +          12       20.272431                                       +
  +          13       22.814369                                       +
  +          14       23.575969                                       +
  + ----------------------------------------------------------------- +
  +  Spin=1 kpt=   41 (  0.450000  0.300000  0.750000) kpt-group=  1  +
  + ----------------------------------------------------------------- +
  +                                                                   +
  +           1       -1.678752                                       +
  +           2       -0.989649                                       +
  +           3        2.084799                                       +
  +           4        2.970531                                       +
  +           5        9.104302                                       +
  +           6       10.695516                                       +
  +           7       12.377674                                       +
  +           8       12.566907                                       +
  +           9       16.301697                                       +
  +          10       17.370254                                       +
  +          11       19.659609                                       +
  +          12       20.819189                                       +
  +          13       22.498374                                       +
  +          14       23.454221                                       +
  + ----------------------------------------------------------------- +
  +  Spin=1 kpt=   42 (  0.425000  0.325000  0.750000) kpt-group=  1  +
  + ----------------------------------------------------------------- +
  +                                                                   +
  +           1       -1.795197                                       +
  +           2       -0.925416                                       +
  +           3        1.990748                                       +
  +           4        3.370974                                       +
  +           5        8.329849                                       +
  +           6       10.628990                                       +
  +           7       12.974941                                       +
  +           8       13.321180                                       +
  +           9       15.698547                                       +
  +          10       16.694111                                       +
  +          11       20.212761                                       +
  +          12       21.381029                                       +
  +          13       22.297454                                       +
  +          14       23.146248                                       +
  + ----------------------------------------------------------------- +
  +  Spin=1 kpt=   43 (  0.400000  0.350000  0.750000) kpt-group=  1  +
  + ----------------------------------------------------------------- +
  +                                                                   +
  +           1       -1.879533                                       +
  +           2       -0.895505                                       +
  +           3        1.933626                                       +
  +           4        3.715818                                       +
  +           5        7.756601                                       +
  +           6       10.572437                                       +
  +           7       13.577191                                       +
  +           8       14.097362                                       +
  +           9       15.091636                                       +
  +          10       15.895852                                       +
  +          11       20.824503                                       +
  +          12       21.902212                                       +
  +          13       22.203773                                       +
  +          14       22.803685                                       +
  + ----------------------------------------------------------------- +
  +  Spin=1 kpt=   44 (  0.375000  0.375000  0.750000) kpt-group=  1  +
  + ----------------------------------------------------------------- +
  +                                                                   +
  +           1       -1.906197                                       +
  +           2       -0.888483                                       +
  +           3        1.913400                                       +
  +           4        3.859805                                       +
  +           5        7.540482                                       +
  +           6       10.554050                                       +
  +           7       13.947965                                       +
  +           8       14.669386                                       +
  +           9       14.688306                                       +
  +          10       15.243271                                       +
  +          11       21.155708                                       +
  +          12       22.254740                                       +
  +          13       22.348528                                       +
  +          14       22.413906                                       +
  =====================================================================

Writing model to Si2.orbitals

 ***************** Symmetrised Forces *****************
 *                                                    *
 *            Cartesian components (eV/A)             *
 * -------------------------------------------------- *
 *                   x            y            z      *
 *                                                    *
 * Si        1      0.00000      0.00000     -0.00000 *
 * Si        2     -0.00000      0.00000      0.00000 *
 *                                                    *
 ******************************************************

 Pseudo atomic calculation performed for Si 3s2 3p2

 Converged in 16 iterations to a total energy of -102.0354 eV

Charge spilling parameter for spin component 1 = 0.78%

     Atomic Populations (Mulliken)
     -----------------------------
Species   Ion     s      p      d      f     Total  Charge (e)
==============================================================
  Si       1     1.35   2.65   0.00   0.00   4.00     0.00
  Si       2     1.35   2.65   0.00   0.00   4.00     0.00
==============================================================

            Bond              Population      Length (A)
============================================================
         Si 1 -- Si 2              2.99        2.33434
============================================================


Writing analysis data to Si2.castep_bin

Writing model to Si2.check
 
 A BibTeX formatted list of references used in this run has been written to 
 Si2.bib
 
Initialisation time =      0.09 s
Calculation time    =      2.87 s
Finalisation time   =      0.01 s
Total time          =      2.97 s
