 +-------------------------------------------------+
 |                                                 |
 |      CCC   AA    SSS  TTTTT  EEEEE  PPPP        |
 |     C     A  A  S       T    E      P   P       |
 |     C     AAAA   SS     T    EEE    PPPP        |
 |     C     A  A     S    T    E      P           |
 |      CCC  A  A  SSS     T    EEEEE  P           |
 |                                                 |
 +-------------------------------------------------+
 |                                                 |
 | Welcome to Academic Release CASTEP version 16.1 |          
 | Ab Initio Total Energy Program                  |
 |                                                 |
 | Authors:                                        |
 | M. Segall, M. Probert, C. Pickard, P. Hasnip,   |
 | S. Clark, K. Refson, J. R. Yates, M. Payne      |
 |                                                 |
 | Contributors:                                   |
 | P. Lindan, P. Haynes, J. White, V. Milman,      |
 | N. Govind, M. Gibson, P. Tulip, V. Cocula,      |
 | B. Montanari, D. Quigley, M. Glover,            |
 | L. Bernasconi, A. Perlov, M. Plummer,           |
 | E. McNellis, J. Meyer, J. Gale, D. Jochym       |
 | J. Aarons, B. Walker, R. Gillen, D. Jones       |
 | T. Green, I. J. Bush, C. J. Armstrong,          |
 | E. J. Higgins, E. L. Brown, M. S. McFly         |
 |                                                 |
 | Copyright (c) 2000 - 2015                       |
 |                                                 |
 |     Distributed under the terms of an           |
 |     Agreement between the United Kingdom        |
 |     Car-Parrinello (UKCP) Consortium,           |
 |     Daresbury Laboratory and Accelrys, Inc.     |
 |                                                 |
 | Please cite                                     |
 |                                                 |
 |     "First principles methods using CASTEP"     |
 |                                                 |
 |         Zeitschrift fuer Kristallographie       |
 |           220(5-6) pp. 567-570 (2005)           |
 |                                                 |
 | S. J. Clark, M. D. Segall, C. J. Pickard,       |
 | P. J. Hasnip, M. J. Probert, K. Refson,         |
 | M. C. Payne                                     |
 |                                                 |
 |       in all publications arising from          |
 |              your use of CASTEP                 |
 |                                                 |
 +-------------------------------------------------+


 Compiled for darwin_x86_64_gfortran5.0 on Fri, 19 Feb 2016 13:44:46 +0000
 from code version Version unavailable
 Compiler: GNU Fortran 5.3.0; Optimisation: intermediate
 MATHLIBS: default (LAPACK version 3.2.1)
 FFT Lib : default
 Fundamental constants values: CODATA 2010

 Run started: Fri, 26 Feb 2016 14:26:55 +0000

 Atomic calculation performed for Si: 1s2 2s2 2p6 3s2 3p2

 Converged in 55 iterations to an ae energy of -7859.183 eV

 Identity difference: 3.10E-04

   ============================================================                
   | Pseudopotential Report - Date of generation 26-02-2016   |                
   ------------------------------------------------------------                
   | Element: Si Ionic charge:  4.00 Level of theory: LDA     |                
   | Atomic Solver: Koelling-Harmon                           |                
   |                                                          |                
   |               Reference Electronic Structure             |                
   |         Orbital         Occupation         Energy        |                
   |            3s              2.000           -0.400        |                
   |            3p              2.000           -0.153        |                
   |                                                          |                
   |                 Pseudopotential Definition               |                
   |        Beta     l      e      Rc     scheme   norm       |                
   |          1      0   -0.400   1.797     qc      0         |                
   |          2      0    0.250   1.797     qc      0         |                
   |          3      1   -0.153   1.797     qc      0         |                
   |          4      1    0.250   1.797     qc      0         |                
   |         loc     2    0.000   1.797     pn      0         |                
   |                                                          |                
   | Augmentation charge Rinner = 1.255                       |                
   | Partial core correction Rc = 1.255                       |                
   ------------------------------------------------------------                
   | "2|1.8|3.675|5.512|7.35|30UU:31UU:32LGG[]"               |                
   ------------------------------------------------------------                
   |      Author: Chris J. Pickard, Cambridge University      |                
   ============================================================                

 Doing a self consistent calculation for the test configuration

 Atomic calculation performed for Si: 1s2 2s2 2p6 3s2 3p2

 Converged in 55 iterations to an ae energy of -7859.183 eV

 ---------------------------------------
 AE eigenvalue nl 10 =      -65.35746422
 AE eigenvalue nl 20 =       -5.09838112
 AE eigenvalue nl 21 =       -3.51325272
 AE eigenvalue nl 30 =       -0.39999470
 AE eigenvalue nl 31 =       -0.15319683
 ---------------------------------------
 PS eigenvalue nl 30 =       -0.39997928
 PS eigenvalue nl 31 =       -0.15318264
 ---------------------------------------
 Maximum eigenvalue error:   1.54E-05

 Derived cutoff energies: C=   1 M=   2 F=   4 E=   6


 ***************************************

 Atomic calculation performed for Si:c: 1s1 2s2 2p6 3s2 3p2

 Converged in 52 iterations to an ae energy of -6005.335 eV

 Identity difference: 1.26E-03

   ============================================================                
   | Pseudopotential Report - Date of generation 26-02-2016   |                
   ------------------------------------------------------------                
   | Element: Si Ionic charge:  5.00 Level of theory: LDA     |                
   | Atomic Solver: Koelling-Harmon                           |                
   |                                                          |                
   |               Reference Electronic Structure             |                
   |         Orbital         Occupation         Energy        |                
   |            3s              2.000           -0.832        |                
   |            3p              2.000           -0.531        |                
   |                                                          |                
   |                 Pseudopotential Definition               |                
   |        Beta     l      e      Rc     scheme   norm       |                
   |          1      0   -0.832   1.797     qc      0         |                
   |          2      0    0.250   1.797     qc      0         |                
   |          3      1   -0.531   1.797     qc      0         |                
   |          4      1    0.250   1.797     qc      0         |                
   |         loc     2    0.000   1.797     pn      0         |                
   |                                                          |                
   | Augmentation charge Rinner = 1.255                       |                
   | Partial core correction Rc = 1.255                       |                
   ------------------------------------------------------------                
   | "2|1.8|3.675|5.512|7.35|30UU:31UU:32LGG{1s1}[]"          |                
   ------------------------------------------------------------                
   |      Author: Chris J. Pickard, Cambridge University      |                
   ============================================================                

 Doing a self consistent calculation for the test configuration

 Atomic calculation performed for Si:c: 1s1 2s2 2p6 3s2 3p2

 Converged in 52 iterations to an ae energy of -6005.335 eV

 ---------------------------------------
 AE eigenvalue nl 10 =      -70.91845670
 AE eigenvalue nl 20 =       -6.45682757
 AE eigenvalue nl 21 =       -4.99205456
 AE eigenvalue nl 30 =       -0.83245617
 AE eigenvalue nl 31 =       -0.53142709
 ---------------------------------------
 PS eigenvalue nl 30 =       -0.83244116
 PS eigenvalue nl 31 =       -0.53141390
 ---------------------------------------
 Maximum eigenvalue error:   1.50E-05

 Derived cutoff energies: C=   2 M=   4 F=   4 E=   6


 ***************************************

 Pseudo atomic calculation performed for Si 3s2 3p2

 Converged in 19 iterations to a total energy of -163.0575 eV


 Pseudo atomic calculation performed for Si:c 3s2 3p2

 Converged in 17 iterations to a total energy of -205.1678 eV

 Calculation not parallelised.

 ************************************ Title ************************************
 

 ***************************** General Parameters ******************************
  
 output verbosity                               : normal  (1)
 write checkpoint data to                       : Si2-k222.check
 type of calculation                            : Core level spectra (ELNES etc)
 stress calculation                             : off
 density difference calculation                 : off
 electron localisation func (ELF) calculation   : off
 Hirshfeld analysis                             : off
 unlimited duration calculation
 timing information                             : on
 memory usage estimate                          : on
 write final potential to formatted file        : off
 write final density to formatted file          : off
 write BibTeX reference list                    : on
 write OTFG pseudopotential files               : on
 checkpoint writing                             : both castep_bin and check files
  
 output         length unit                     : A
 output           mass unit                     : amu
 output           time unit                     : ps
 output         charge unit                     : e
 output           spin unit                     : hbar/2
 output         energy unit                     : eV
 output          force unit                     : eV/A
 output       velocity unit                     : A/ps
 output       pressure unit                     : GPa
 output     inv_length unit                     : 1/A
 output      frequency unit                     : cm-1
 output force constant unit                     : eV/A**2
 output         volume unit                     : A**3
 output   IR intensity unit                     : (D/A)**2/amu
 output         dipole unit                     : D
 output         efield unit                     : eV/A/e
 output        entropy unit                     : J/mol/K
  
 wavefunctions paging                           : none
 random number generator seed                   :    2781828
 data distribution                              : optimal for this architecture
 optimization strategy                          : maximize speed(+++)

 *********************** Exchange-Correlation Parameters ***********************
  
 using functional                               : Local Density Approximation
 relativistic treatment                         : Koelling-Harmon
 DFT+D: Semi-empirical dispersion correction    : off

 ************************* Pseudopotential Parameters **************************
  
 pseudopotential representation                 : reciprocal space
 <beta|phi> representation                      : reciprocal space
 spin-orbit coupling                            : off

 **************************** Basis Set Parameters *****************************
  
 plane wave basis set cut-off                   :   250.0000   eV
 size of standard grid                          :     2.0000
 size of   fine   gmax                          :    16.2009   1/A
 finite basis set correction                    : none

 **************************** Electronic Parameters ****************************
  
 number of  electrons                           :  9.000    
 net charge of system                           :  0.000    
 net spin   of system                           :  1.000    
 number of  up  spins                           :  5.000    
 number of down spins                           :  4.000    
 treating system as spin-polarized
 number of bands                                :         13

 ********************* Electronic Minimization Parameters **********************
  
 Method: Treating system as non-metallic,
         and number of  SD  steps               :          1
         and number of  CG  steps               :          4
  
 total energy / atom convergence tol.           : 0.1000E-06   eV
 max force / atom convergence tol.              : ignored
 convergence tolerance window                   :          3   cycles
 max. number of SCF cycles                      :         30
 periodic dipole correction                     : NONE

 *********************** Population Analysis Parameters ************************
  
 Population analysis with cutoff                :  3.000       A

 ************************ Core Level Spectra Parameters ************************
  
 number of bands                                :         32
 band convergence tolerance                     : 0.1000E-05   eV

 *******************************************************************************
  

                           -------------------------------
                                      Unit Cell
                           -------------------------------
        Real Lattice(A)                      Reciprocal Lattice(1/A)
   2.6954645   2.6954645   0.0000000        1.1655107   1.1655107  -1.1655107
   2.6954645   0.0000000   2.6954645        1.1655107  -1.1655107   1.1655107
   0.0000000   2.6954645   2.6954645       -1.1655107   1.1655107   1.1655107

                       Lattice parameters(A)       Cell Angles
                    a =    3.811962          alpha =   60.000000
                    b =    3.811962          beta  =   60.000000
                    c =    3.811962          gamma =   60.000000

                       Current cell volume =   39.167950       A**3

                           -------------------------------
                                     Cell Contents
                           -------------------------------
                         Total number of ions in cell =    2
                      Total number of species in cell =    2
                        Max number of any one species =    1

            xxxxxxxxxxxxxxxxxxxxxxxxxxxxxxxxxxxxxxxxxxxxxxxxxxxxxxxxxxxx
            x  Element    Atom        Fractional coordinates of atoms  x
            x            Number           u          v          w      x
            x----------------------------------------------------------x
            x  Si           1         0.250000   0.250000   0.250000   x 
            x  Si:c         1         0.000000   0.000000   0.000000   x 
            xxxxxxxxxxxxxxxxxxxxxxxxxxxxxxxxxxxxxxxxxxxxxxxxxxxxxxxxxxxx


                         No user defined ionic velocities

                           -------------------------------
                                   Details of Species
                           -------------------------------

                               Mass of species in AMU
                                    Si   28.0855000
                                    Si:c   28.0855000

                          Electric Quadrupole Moment (Barn)
                                    Si    1.0000000 No Isotope Defined
                                    Si:c    1.0000000 No Isotope Defined

                          Files used for pseudopotentials:
                                    Si 2|1.8|3.675|5.512|7.35|30UU:31UU:32LGG[]
                                    Si:c 2|1.8|3.675|5.512|7.35|30UU:31UU:32LGG{1s1}[]

                           -------------------------------
                              k-Points For BZ Sampling
                           -------------------------------
                       MP grid size for SCF calculation is  2  2  2
                            with an offset of   0.000  0.000  0.000
                       Number of kpoints used =             2

                           -------------------------------
                               Symmetry and Constraints
                           -------------------------------

                      Maximum deviation from symmetry =  0.00000         ANG

                      Number of symmetry operations   =          24
                      Number of ionic constraints     =           3
                      Point group of crystal =    30: Td, -43m, -4 3 m
                      Space group of crystal =   216: F-43m, F -4 2 3

             Set iprint > 1 for details on symmetry rotations/translations

                         Centre of mass is constrained
             Set iprint > 1 for details of linear ionic constraints

                         Number of cell constraints= 5
                         Cell constraints are:  1 1 1 0 0 0

                         External pressure/stress (GPa)
                          0.00000   0.00000   0.00000
                                    0.00000   0.00000
                                              0.00000
  
+---------------- MEMORY AND SCRATCH DISK ESTIMATES PER PROCESS --------------+
|                                                     Memory          Disk    |
| Baseline code, static data and system overhead        0.0 MB         0.0 MB |
| BLAS internal memory storage                          0.0 MB         0.0 MB |
| Model and support data                               12.5 MB         0.0 MB |
| Electronic energy minimisation requirements           2.5 MB         0.0 MB |
| Force calculation requirements                        1.5 MB         0.0 MB |
|                                               ----------------------------- |
| Approx. total storage required per process           15.0 MB         0.0 MB |
|                                                                             |
| Requirements will fluctuate during execution and may exceed these estimates |
+-----------------------------------------------------------------------------+
------------------------------------------------------------------------ <-- SCF
SCF loop      Energy                           Energy gain       Timer   <-- SCF
                                               per atom          (sec)   <-- SCF
------------------------------------------------------------------------ <-- SCF
Initial  -1.32264481E+001                                          9.08  <-- SCF
      1  -3.89199398E+002                    1.87986475E+002       9.55  <-- SCF
      2  -3.90045835E+002                    4.23218857E-001      10.00  <-- SCF
      3  -3.90046275E+002                    2.19845218E-004      10.44  <-- SCF
      4  -3.90046468E+002                    9.63654111E-005      10.89  <-- SCF
      5  -3.90046489E+002                    1.06305615E-005      11.35  <-- SCF
      6  -3.90046492E+002                    1.33723172E-006      11.82  <-- SCF
      7  -3.90046492E+002                    2.24860148E-007      12.29  <-- SCF
      8  -3.90046492E+002                    2.73001102E-008      12.81  <-- SCF
      9  -3.90046492E+002                    2.20583351E-008      13.28  <-- SCF
------------------------------------------------------------------------ <-- SCF
 
Integrated Spin Density     =     1.00000     hbar/2                        
Integrated |Spin Density|   =     1.00282     hbar/2                        
 
Final energy =  -390.0464922912     eV
(energy not corrected for finite basis set)
 

Writing analysis data to Si2-k222.castep_bin

Writing model to Si2-k222.check
 
+---------------- MEMORY AND SCRATCH DISK ESTIMATES PER PROCESS --------------+
|                                                     Memory          Disk    |
|                                               ----------------------------- |
| Approx. total storage required per process           25.9 MB         0.0 MB |
|                                                                             |
| Requirements will fluctuate during execution and may exceed these estimates |
+-----------------------------------------------------------------------------+
 
  =====================================================================
  +                                                                   +
  +       B A N D   S T R U C T U R E   C A L C U L A T I O N         +
  +                                                                   +
  + ================================================================= +
  +                                                                   +
  +     Band Structure Calculation: Progress report on root process   +
  +                                                                   +
  +   There are    2 BS k-points. Root process contains    2 of them. +
  +                                                                   +
  +   Spin= 1 of  2, K-point=   1 of    2 completed, Time:     0.34s. +
  +   Spin= 1 of  2, K-point=   2 of    2 completed, Time:     0.36s. +
  +   Spin= 2 of  2, K-point=   1 of    2 completed, Time:     0.34s. +
  +   Spin= 2 of  2, K-point=   2 of    2 completed, Time:     0.36s. +
  +   Finished BS calculation on root process (waiting for others).   +
  +                                                                   +
  + ================================================================= +
  +                       Electronic energies                         +
  +                       -------------------                         +
  +                                                                   +
  +   Band number   Energy in eV                                      +
  + ================================================================= +
  +                                                                   +
  + ----------------------------------------------------------------- +
  +  Spin=1 kpt=    1 ( -0.250000 -0.250000 -0.250000) kpt-group=  1  +
  + ----------------------------------------------------------------- +
  +                                                                   +
  +           1       -6.960819                                       +
  +           2        0.288499                                       +
  +           3        3.311192                                       +
  +           4        3.323993                                       +
  +           5        6.243523                                       +
  +           6        8.229974                                       +
  +           7        8.232763                                       +
  +           8       10.521079                                       +
  +           9       12.475961                                       +
  +          10       12.480044                                       +
  +          11       14.157561                                       +
  +          12       16.779088                                       +
  +          13       19.756570                                       +
  +          14       19.757177                                       +
  +          15       22.431033                                       +
  +          16       22.939262                                       +
  +          17       22.944685                                       +
  +          18       25.265287                                       +
  +          19       29.127003                                       +
  +          20       29.128053                                       +
  +          21       30.769653                                       +
  +          22       30.777738                                       +
  +          23       32.832075                                       +
  +          24       34.400715                                       +
  +          25       35.763570                                       +
  +          26       37.267840                                       +
  +          27       37.268014                                       +
  +          28       38.980992                                       +
  +          29       38.981956                                       +
  +          30       39.975329                                       +
  +          31       39.977879                                       +
  +          32       43.577547                                       +
  + ----------------------------------------------------------------- +
  +  Spin=1 kpt=    2 (  0.250000 -0.250000 -0.250000) kpt-group=  1  +
  + ----------------------------------------------------------------- +
  +                                                                   +
  +           1       -5.275524                                       +
  +           2       -2.053931                                       +
  +           3        0.923013                                       +
  +           4        2.066672                                       +
  +           5        6.310558                                       +
  +           6        8.987651                                       +
  +           7       10.143306                                       +
  +           8       10.582079                                       +
  +           9       14.416665                                       +
  +          10       15.513720                                       +
  +          11       16.733999                                       +
  +          12       17.169996                                       +
  +          13       18.076231                                       +
  +          14       21.762659                                       +
  +          15       22.806577                                       +
  +          16       22.899722                                       +
  +          17       24.412905                                       +
  +          18       24.648048                                       +
  +          19       25.202025                                       +
  +          20       28.133932                                       +
  +          21       28.759753                                       +
  +          22       30.361636                                       +
  +          23       30.885031                                       +
  +          24       33.091578                                       +
  +          25       33.938820                                       +
  +          26       34.755268                                       +
  +          27       34.928105                                       +
  +          28       36.591255                                       +
  +          29       37.588360                                       +
  +          30       39.830112                                       +
  +          31       40.877570                                       +
  +          32       41.585285                                       +
  + ----------------------------------------------------------------- +
  +  Spin=2 kpt=    1 ( -0.250000 -0.250000 -0.250000) kpt-group=  1  +
  + ----------------------------------------------------------------- +
  +                                                                   +
  +           1       -6.570609                                       +
  +           2        0.678854                                       +
  +           3        3.649016                                       +
  +           4        3.662869                                       +
  +           5        6.706366                                       +
  +           6        8.696643                                       +
  +           7        8.703038                                       +
  +           8       10.962587                                       +
  +           9       12.924964                                       +
  +          10       12.929383                                       +
  +          11       14.716921                                       +
  +          12       17.312005                                       +
  +          13       20.265501                                       +
  +          14       20.267924                                       +
  +          15       22.894356                                       +
  +          16       23.379162                                       +
  +          17       23.384506                                       +
  +          18       25.850184                                       +
  +          19       29.561452                                       +
  +          20       29.566701                                       +
  +          21       31.159012                                       +
  +          22       31.173260                                       +
  +          23       33.264871                                       +
  +          24       34.888463                                       +
  +          25       36.163748                                       +
  +          26       37.751266                                       +
  +          27       37.752285                                       +
  +          28       39.471627                                       +
  +          29       39.472507                                       +
  +          30       40.459291                                       +
  +          31       40.460540                                       +
  +          32       44.109190                                       +
  + ----------------------------------------------------------------- +
  +  Spin=2 kpt=    2 (  0.250000 -0.250000 -0.250000) kpt-group=  1  +
  + ----------------------------------------------------------------- +
  +                                                                   +
  +           1       -4.908148                                       +
  +           2       -1.654036                                       +
  +           3        1.328338                                       +
  +           4        2.434150                                       +
  +           5        6.799868                                       +
  +           6        9.455026                                       +
  +           7       10.592452                                       +
  +           8       11.044048                                       +
  +           9       14.888457                                       +
  +          10       15.939310                                       +
  +          11       17.150296                                       +
  +          12       17.597507                                       +
  +          13       18.596425                                       +
  +          14       22.238026                                       +
  +          15       23.269786                                       +
  +          16       23.325339                                       +
  +          17       24.889236                                       +
  +          18       25.123244                                       +
  +          19       25.709940                                       +
  +          20       28.602032                                       +
  +          21       29.241210                                       +
  +          22       30.847374                                       +
  +          23       31.390464                                       +
  +          24       33.618807                                       +
  +          25       34.351434                                       +
  +          26       35.245637                                       +
  +          27       35.398376                                       +
  +          28       37.070623                                       +
  +          29       38.094469                                       +
  +          30       40.325518                                       +
  +          31       41.373962                                       +
  +          32       42.055991                                       +
  =====================================================================

 ***************** Symmetrised Forces *****************
 *                                                    *
 *            Cartesian components (eV/A)             *
 * -------------------------------------------------- *
 *                   x            y            z      *
 *                                                    *
 * Si        1      0.00000      0.00000      0.00000 *
 * Si:c      1     -0.00000      0.00000      0.00000 *
 *                                                    *
 ******************************************************

 Pseudo atomic calculation performed for Si 3s2 3p2

 Converged in 19 iterations to a total energy of -163.0575 eV


 Pseudo atomic calculation performed for Si:c 3s2 3p2

 Converged in 17 iterations to a total energy of -205.1678 eV

Charge spilling parameter for spin component 1 = 2.90%
Charge spilling parameter for spin component 2 = 0.73%

     Atomic Populations (Mulliken)
     -----------------------------
Species   Ion     s      p      d      f     Total  Charge (e)  Spin (hbar/2)
===========================================================================
  Si       1     1.55   2.55   0.00   0.00   4.10    -0.10        0.55
  Si:c     1     1.56   3.34   0.00   0.00   4.90     0.10        0.45
===========================================================================

            Bond              Population        Spin       Length (A)
======================================================================
         Si 1 -- Si:c 1            0.74        -0.93          2.33434
======================================================================


Writing analysis data to Si2-k222.castep_bin

Writing model to Si2-k222.check
 
 A BibTeX formatted list of references used in this run has been written to 
 Si2-k222.bib
 
Initialisation time =      8.39 s
Calculation time    =      8.12 s
Finalisation time   =      0.02 s
Total time          =     16.53 s
