 +-------------------------------------------------+
 |                                                 |
 |      CCC   AA    SSS  TTTTT  EEEEE  PPPP        |
 |     C     A  A  S       T    E      P   P       |
 |     C     AAAA   SS     T    EEE    PPPP        |
 |     C     A  A     S    T    E      P           |
 |      CCC  A  A  SSS     T    EEEEE  P           |
 |                                                 |
 +-------------------------------------------------+
 |                                                 |
 | Welcome to Academic Release CASTEP version 16.1 |          
 | Ab Initio Total Energy Program                  |
 |                                                 |
 | Authors:                                        |
 | M. Segall, M. Probert, C. Pickard, P. Hasnip,   |
 | S. Clark, K. Refson, J. R. Yates, M. Payne      |
 |                                                 |
 | Contributors:                                   |
 | P. Lindan, P. Haynes, J. White, V. Milman,      |
 | N. Govind, M. Gibson, P. Tulip, V. Cocula,      |
 | B. Montanari, D. Quigley, M. Glover,            |
 | L. Bernasconi, A. Perlov, M. Plummer,           |
 | E. McNellis, J. Meyer, J. Gale, D. Jochym       |
 | J. Aarons, B. Walker, R. Gillen, D. Jones       |
 | T. Green, I. J. Bush, C. J. Armstrong,          |
 | E. J. Higgins, E. L. Brown, M. S. McFly         |
 |                                                 |
 | Copyright (c) 2000 - 2015                       |
 |                                                 |
 |     Distributed under the terms of an           |
 |     Agreement between the United Kingdom        |
 |     Car-Parrinello (UKCP) Consortium,           |
 |     Daresbury Laboratory and Accelrys, Inc.     |
 |                                                 |
 | Please cite                                     |
 |                                                 |
 |     "First principles methods using CASTEP"     |
 |                                                 |
 |         Zeitschrift fuer Kristallographie       |
 |           220(5-6) pp. 567-570 (2005)           |
 |                                                 |
 | S. J. Clark, M. D. Segall, C. J. Pickard,       |
 | P. J. Hasnip, M. J. Probert, K. Refson,         |
 | M. C. Payne                                     |
 |                                                 |
 |       in all publications arising from          |
 |              your use of CASTEP                 |
 |                                                 |
 +-------------------------------------------------+


 Compiled for darwin_x86_64_gfortran5.0 on Fri, 19 Feb 2016 13:44:46 +0000
 from code version Version unavailable
 Compiler: GNU Fortran 5.3.0; Optimisation: intermediate
 MATHLIBS: default (LAPACK version 3.2.1)
 FFT Lib : default
 Fundamental constants values: CODATA 2010

 Run started: Thu, 10 Mar 2016 14:58:02 +0000
 Info: number of up-spin electrons is equal to the
       number of down-spins and spin_polarized=true
     - consider setting spin_polarized=false.

 Pseudo atomic calculation performed for Si 3s2 3p2

 Converged in 16 iterations to a total energy of -101.8630 eV

 Calculation not parallelised.

 ************************************ Title ************************************
 

 ***************************** General Parameters ******************************
  
 output verbosity                               : normal  (1)
 write checkpoint data to                       : Si2.check
 type of calculation                            : band structure
 stress calculation                             : off
 density difference calculation                 : on
 electron localisation func (ELF) calculation   : off
 Hirshfeld analysis                             : off
 unlimited duration calculation
 timing information                             : on
 memory usage estimate                          : on
 write final potential to formatted file        : off
 write final density to formatted file          : on
 write BibTeX reference list                    : on
 write OTFG pseudopotential files               : on
 checkpoint writing                             : both castep_bin and check files
  
 output         length unit                     : A
 output           mass unit                     : amu
 output           time unit                     : ps
 output         charge unit                     : e
 output           spin unit                     : hbar/2
 output         energy unit                     : eV
 output          force unit                     : eV/A
 output       velocity unit                     : A/ps
 output       pressure unit                     : GPa
 output     inv_length unit                     : 1/A
 output      frequency unit                     : cm-1
 output force constant unit                     : eV/A**2
 output         volume unit                     : A**3
 output   IR intensity unit                     : (D/A)**2/amu
 output         dipole unit                     : D
 output         efield unit                     : eV/A/e
 output        entropy unit                     : J/mol/K
  
 wavefunctions paging                           : none
 random number generator seed                   : randomised (145802624)
 data distribution                              : optimal for this architecture
 optimization strategy                          : maximize speed(+++)

 *********************** Exchange-Correlation Parameters ***********************
  
 using custom XC functional definition:         : 
 LDA  0.6
 relativistic treatment                         : Koelling-Harmon
 DFT+D: Semi-empirical dispersion correction    : off

 ************************* Pseudopotential Parameters **************************
  
 pseudopotential representation                 : reciprocal space
 <beta|phi> representation                      : reciprocal space
 spin-orbit coupling                            : off

 **************************** Basis Set Parameters *****************************
  
 basis set accuracy                             : MEDIUM
 plane wave basis set cut-off                   :   200.0000   eV
 size of standard grid                          :     1.7500
 size of   fine   gmax                          :    12.6792   1/A
 finite basis set correction                    : none

 **************************** Electronic Parameters ****************************
  
 number of  electrons                           :  8.000    
 net charge of system                           :  0.000    
 net spin   of system                           :  0.000    
 number of  up  spins                           :  4.000    
 number of down spins                           :  4.000    
 treating system as spin-polarized
 number of bands                                :          4

 ********************* Electronic Minimization Parameters **********************
  
 Method: Treating system as non-metallic,
         and number of  SD  steps               :          1
         and number of  CG  steps               :          4
  
 total energy / atom convergence tol.           : 0.1000E-04   eV
 max force / atom convergence tol.              : ignored
 convergence tolerance window                   :          3   cycles
 max. number of SCF cycles                      :         30
 periodic dipole correction                     : NONE

 *********************** Population Analysis Parameters ************************
  
 Population analysis with cutoff                :  3.000       A

 ************************** Band Structure Parameters **************************
  
 max. number of iterations                      :         60
 max. CG steps in BS calc                       :         25
 number of bands / k-point                      :         14
 band convergence tolerance                     : 0.1000E-05   eV
 write orbitals file                            : on

 *******************************************************************************
  

                           -------------------------------
                                      Unit Cell
                           -------------------------------
        Real Lattice(A)                      Reciprocal Lattice(1/A)
   2.6954645   2.6954645   0.0000000        1.1655107   1.1655107  -1.1655107
   2.6954645   0.0000000   2.6954645        1.1655107  -1.1655107   1.1655107
   0.0000000   2.6954645   2.6954645       -1.1655107   1.1655107   1.1655107

                       Lattice parameters(A)       Cell Angles
                    a =    3.811962          alpha =   60.000000
                    b =    3.811962          beta  =   60.000000
                    c =    3.811962          gamma =   60.000000

                       Current cell volume =   39.167950       A**3

                           -------------------------------
                                     Cell Contents
                           -------------------------------
                         Total number of ions in cell =    2
                      Total number of species in cell =    1
                        Max number of any one species =    2

            xxxxxxxxxxxxxxxxxxxxxxxxxxxxxxxxxxxxxxxxxxxxxxxxxxxxxxxxxxxx
            x  Element    Atom        Fractional coordinates of atoms  x
            x            Number           u          v          w      x
            x----------------------------------------------------------x
            x  Si           1         0.000000   0.000000   0.000000   x 
            x  Si           2         0.250000   0.250000   0.250000   x 
            xxxxxxxxxxxxxxxxxxxxxxxxxxxxxxxxxxxxxxxxxxxxxxxxxxxxxxxxxxxx


                         No user defined ionic velocities

                           -------------------------------
                                   Details of Species
                           -------------------------------

                               Mass of species in AMU
                                    Si   28.0855000

                          Electric Quadrupole Moment (Barn)
                                    Si    1.0000000 No Isotope Defined

                          Files used for pseudopotentials:
                                    Si Si_00.recpot

                           -------------------------------
                              k-Points For BZ Sampling
                           -------------------------------
                       MP grid size for SCF calculation is  4  4  4
                            with an offset of   0.000  0.000  0.000
                       Number of kpoints used =            10

                           -------------------------------
                               Symmetry and Constraints
                           -------------------------------

                      Maximum deviation from symmetry =  0.00000         ANG

                      Number of symmetry operations   =          48
                      Number of ionic constraints     =           3
                      Point group of crystal =    32: Oh, m-3m, 4/m -3 2/m
                      Space group of crystal =   227: Fd-3m, F 4d 2 3 -1d

             Set iprint > 1 for details on symmetry rotations/translations

                         Centre of mass is constrained
             Set iprint > 1 for details of linear ionic constraints

                         Number of cell constraints= 5
                         Cell constraints are:  1 1 1 0 0 0

                         External pressure/stress (GPa)
                          0.00000   0.00000   0.00000
                                    0.00000   0.00000
                                              0.00000
  
+---------------- MEMORY AND SCRATCH DISK ESTIMATES PER PROCESS --------------+
|                                                     Memory          Disk    |
| Baseline code, static data and system overhead        0.0 MB         0.0 MB |
| BLAS internal memory storage                          0.0 MB         0.0 MB |
| Model and support data                                3.3 MB         0.0 MB |
| Electronic energy minimisation requirements           2.2 MB         0.0 MB |
| Force calculation requirements                        0.7 MB         0.0 MB |
|                                               ----------------------------- |
| Approx. total storage required per process            5.4 MB         0.0 MB |
|                                                                             |
| Requirements will fluctuate during execution and may exceed these estimates |
+-----------------------------------------------------------------------------+
------------------------------------------------------------------------ <-- SCF
SCF loop      Energy                           Energy gain       Timer   <-- SCF
                                               per atom          (sec)   <-- SCF
------------------------------------------------------------------------ <-- SCF
Initial   2.00428596E+002                                          0.15  <-- SCF
      1  -1.75434795E+002                    1.87931696E+002       0.41  <-- SCF
      2  -1.89463389E+002                    7.01429676E+000       0.66  <-- SCF
      3  -1.89631796E+002                    8.42034114E-002       0.92  <-- SCF
      4  -1.89659843E+002                    1.40236650E-002       1.17  <-- SCF
      5  -1.89659985E+002                    7.12556684E-005       1.43  <-- SCF
      6  -1.89659987E+002                    5.53332529E-007       1.68  <-- SCF
      7  -1.89659987E+002                    5.02198612E-009       1.94  <-- SCF
------------------------------------------------------------------------ <-- SCF
 
Integrated Spin Density     =    0.293439E-15 hbar/2                        
Integrated |Spin Density|   =    0.132057E-06 hbar/2                        
 
Final energy =  -189.6599865832     eV
(energy not corrected for finite basis set)
 

Writing analysis data to Si2.castep_bin

Writing model to Si2.check
  
+---------------- MEMORY AND SCRATCH DISK ESTIMATES PER PROCESS --------------+
|                                                     Memory          Disk    |
| Baseline code, static data and system overhead        0.0 MB         0.0 MB |
| BLAS internal memory storage                          0.0 MB         0.0 MB |
| Model and support data                                5.7 MB         0.0 MB |
| Band structure calculation requirements              16.2 MB         0.0 MB |
| Force calculation requirements                        0.7 MB         0.0 MB |
|                                               ----------------------------- |
| Approx. total storage required per process           21.9 MB         0.0 MB |
|                                                                             |
| Requirements will fluctuate during execution and may exceed these estimates |
+-----------------------------------------------------------------------------+
  =====================================================================
  +  Fermi energy for spin  up  electrons is:     4.43432 eV          +
  +  Fermi energy for spin down electrons is:     4.43432 eV          +
  +                                                                   +
  +       B A N D   S T R U C T U R E   C A L C U L A T I O N         +
  +      (General k-point calculation - complex wavefunctions)        +
  +                                                                   +
  + ================================================================= +
  +                                                                   +
  +     Band Structure Calculation: Progress report on root process   +
  +                                                                   +
  +   There are   44 BS k-points. Root process contains   44 of them. +
  +                                                                   +
  +   Spin= 1 of  2, K-point=   1 of   44 completed, Time:     0.10s. +
  +   Spin= 1 of  2, K-point=   2 of   44 completed, Time:     0.10s. +
  +   Spin= 1 of  2, K-point=   3 of   44 completed, Time:     0.12s. +
  +   Spin= 1 of  2, K-point=   4 of   44 completed, Time:     0.11s. +
  +   Spin= 1 of  2, K-point=   5 of   44 completed, Time:     0.11s. +
  +   Spin= 1 of  2, K-point=   6 of   44 completed, Time:     0.10s. +
  +   Spin= 1 of  2, K-point=   7 of   44 completed, Time:     0.10s. +
  +   Spin= 1 of  2, K-point=   8 of   44 completed, Time:     0.10s. +
  +   Spin= 1 of  2, K-point=   9 of   44 completed, Time:     0.10s. +
  +   Spin= 1 of  2, K-point=  10 of   44 completed, Time:     0.10s. +
  +   Spin= 1 of  2, K-point=  11 of   44 completed, Time:     0.10s. +
  +   Spin= 1 of  2, K-point=  12 of   44 completed, Time:     0.10s. +
  +   Spin= 1 of  2, K-point=  13 of   44 completed, Time:     0.10s. +
  +   Spin= 1 of  2, K-point=  14 of   44 completed, Time:     0.10s. +
  +   Spin= 1 of  2, K-point=  15 of   44 completed, Time:     0.10s. +
  +   Spin= 1 of  2, K-point=  16 of   44 completed, Time:     0.10s. +
  +   Spin= 1 of  2, K-point=  17 of   44 completed, Time:     0.10s. +
  +   Spin= 1 of  2, K-point=  18 of   44 completed, Time:     0.10s. +
  +   Spin= 1 of  2, K-point=  19 of   44 completed, Time:     0.10s. +
  +   Spin= 1 of  2, K-point=  20 of   44 completed, Time:     0.10s. +
  +   Spin= 1 of  2, K-point=  21 of   44 completed, Time:     0.11s. +
  +   Spin= 1 of  2, K-point=  22 of   44 completed, Time:     0.10s. +
  +   Spin= 1 of  2, K-point=  23 of   44 completed, Time:     0.10s. +
  +   Spin= 1 of  2, K-point=  24 of   44 completed, Time:     0.10s. +
  +   Spin= 1 of  2, K-point=  25 of   44 completed, Time:     0.10s. +
  +   Spin= 1 of  2, K-point=  26 of   44 completed, Time:     0.10s. +
  +   Spin= 1 of  2, K-point=  27 of   44 completed, Time:     0.10s. +
  +   Spin= 1 of  2, K-point=  28 of   44 completed, Time:     0.10s. +
  +   Spin= 1 of  2, K-point=  29 of   44 completed, Time:     0.11s. +
  +   Spin= 1 of  2, K-point=  30 of   44 completed, Time:     0.13s. +
  +   Spin= 1 of  2, K-point=  31 of   44 completed, Time:     0.12s. +
  +   Spin= 1 of  2, K-point=  32 of   44 completed, Time:     0.11s. +
  +   Spin= 1 of  2, K-point=  33 of   44 completed, Time:     0.14s. +
  +   Spin= 1 of  2, K-point=  34 of   44 completed, Time:     0.19s. +
  +   Spin= 1 of  2, K-point=  35 of   44 completed, Time:     0.13s. +
  +   Spin= 1 of  2, K-point=  36 of   44 completed, Time:     0.14s. +
  +   Spin= 1 of  2, K-point=  37 of   44 completed, Time:     0.19s. +
  +   Spin= 1 of  2, K-point=  38 of   44 completed, Time:     0.10s. +
  +   Spin= 1 of  2, K-point=  39 of   44 completed, Time:     0.13s. +
  +   Spin= 1 of  2, K-point=  40 of   44 completed, Time:     0.11s. +
  +   Spin= 1 of  2, K-point=  41 of   44 completed, Time:     0.12s. +
  +   Spin= 1 of  2, K-point=  42 of   44 completed, Time:     0.15s. +
  +   Spin= 1 of  2, K-point=  43 of   44 completed, Time:     0.14s. +
  +   Spin= 1 of  2, K-point=  44 of   44 completed, Time:     0.18s. +
  +   Spin= 2 of  2, K-point=   1 of   44 completed, Time:     0.10s. +
  +   Spin= 2 of  2, K-point=   2 of   44 completed, Time:     0.16s. +
  +   Spin= 2 of  2, K-point=   3 of   44 completed, Time:     0.11s. +
  +   Spin= 2 of  2, K-point=   4 of   44 completed, Time:     0.11s. +
  +   Spin= 2 of  2, K-point=   5 of   44 completed, Time:     0.11s. +
  +   Spin= 2 of  2, K-point=   6 of   44 completed, Time:     0.11s. +
  +   Spin= 2 of  2, K-point=   7 of   44 completed, Time:     0.10s. +
  +   Spin= 2 of  2, K-point=   8 of   44 completed, Time:     0.11s. +
  +   Spin= 2 of  2, K-point=   9 of   44 completed, Time:     0.10s. +
  +   Spin= 2 of  2, K-point=  10 of   44 completed, Time:     0.11s. +
  +   Spin= 2 of  2, K-point=  11 of   44 completed, Time:     0.12s. +
  +   Spin= 2 of  2, K-point=  12 of   44 completed, Time:     0.10s. +
  +   Spin= 2 of  2, K-point=  13 of   44 completed, Time:     0.11s. +
  +   Spin= 2 of  2, K-point=  14 of   44 completed, Time:     0.11s. +
  +   Spin= 2 of  2, K-point=  15 of   44 completed, Time:     0.13s. +
  +   Spin= 2 of  2, K-point=  16 of   44 completed, Time:     0.15s. +
  +   Spin= 2 of  2, K-point=  17 of   44 completed, Time:     0.11s. +
  +   Spin= 2 of  2, K-point=  18 of   44 completed, Time:     0.11s. +
  +   Spin= 2 of  2, K-point=  19 of   44 completed, Time:     0.17s. +
  +   Spin= 2 of  2, K-point=  20 of   44 completed, Time:     0.24s. +
  +   Spin= 2 of  2, K-point=  21 of   44 completed, Time:     0.11s. +
  +   Spin= 2 of  2, K-point=  22 of   44 completed, Time:     0.11s. +
  +   Spin= 2 of  2, K-point=  23 of   44 completed, Time:     0.11s. +
  +   Spin= 2 of  2, K-point=  24 of   44 completed, Time:     0.10s. +
  +   Spin= 2 of  2, K-point=  25 of   44 completed, Time:     0.11s. +
  +   Spin= 2 of  2, K-point=  26 of   44 completed, Time:     0.11s. +
  +   Spin= 2 of  2, K-point=  27 of   44 completed, Time:     0.10s. +
  +   Spin= 2 of  2, K-point=  28 of   44 completed, Time:     0.11s. +
  +   Spin= 2 of  2, K-point=  29 of   44 completed, Time:     0.11s. +
  +   Spin= 2 of  2, K-point=  30 of   44 completed, Time:     0.12s. +
  +   Spin= 2 of  2, K-point=  31 of   44 completed, Time:     0.10s. +
  +   Spin= 2 of  2, K-point=  32 of   44 completed, Time:     0.11s. +
  +   Spin= 2 of  2, K-point=  33 of   44 completed, Time:     0.10s. +
  +   Spin= 2 of  2, K-point=  34 of   44 completed, Time:     0.10s. +
  +   Spin= 2 of  2, K-point=  35 of   44 completed, Time:     0.10s. +
  +   Spin= 2 of  2, K-point=  36 of   44 completed, Time:     0.10s. +
  +   Spin= 2 of  2, K-point=  37 of   44 completed, Time:     0.10s. +
  +   Spin= 2 of  2, K-point=  38 of   44 completed, Time:     0.10s. +
  +   Spin= 2 of  2, K-point=  39 of   44 completed, Time:     0.11s. +
  +   Spin= 2 of  2, K-point=  40 of   44 completed, Time:     0.10s. +
  +   Spin= 2 of  2, K-point=  41 of   44 completed, Time:     0.11s. +
  +   Spin= 2 of  2, K-point=  42 of   44 completed, Time:     0.12s. +
  +   Spin= 2 of  2, K-point=  43 of   44 completed, Time:     0.11s. +
  +   Spin= 2 of  2, K-point=  44 of   44 completed, Time:     0.12s. +
  +   Finished BS calculation on root process (waiting for others).   +
  +                                                                   +
  + ================================================================= +
  +                       Electronic energies                         +
  +                       -------------------                         +
  +                                                                   +
  +   Band number   Energy in eV                                      +
  + ================================================================= +
  +                                                                   +
  + ----------------------------------------------------------------- +
  +  Spin=1 kpt=    1 (  0.500000  0.250000  0.750000) kpt-group=  1  +
  + ----------------------------------------------------------------- +
  +                                                                   +
  +           1       -3.013960                                       +
  +           2       -3.013951                                       +
  +           3        0.432237                                       +
  +           4        0.432237                                       +
  +           5        8.619138                                       +
  +           6        8.619142                                       +
  +           7        9.526629                                       +
  +           8        9.526639                                       +
  +           9       15.399901                                       +
  +          10       15.399904                                       +
  +          11       17.777499                                       +
  +          12       17.777508                                       +
  +          13       20.820524                                       +
  +          14       20.820527                                       +
  + ----------------------------------------------------------------- +
  +  Spin=1 kpt=    2 (  0.500000  0.277778  0.722222) kpt-group=  1  +
  + ----------------------------------------------------------------- +
  +                                                                   +
  +           1       -3.386656                                       +
  +           2       -2.668673                                       +
  +           3        0.197775                                       +
  +           4        0.781518                                       +
  +           5        8.268098                                       +
  +           6        8.679805                                       +
  +           7        9.499659                                       +
  +           8        9.949423                                       +
  +           9       14.521035                                       +
  +          10       15.891463                                       +
  +          11       17.222201                                       +
  +          12       18.558424                                       +
  +          13       20.032576                                       +
  +          14       21.379631                                       +
  + ----------------------------------------------------------------- +
  +  Spin=1 kpt=    3 (  0.500000  0.305556  0.694444) kpt-group=  1  +
  + ----------------------------------------------------------------- +
  +                                                                   +
  +           1       -3.748900                                       +
  +           2       -2.409834                                       +
  +           3        0.142547                                       +
  +           4        1.200770                                       +
  +           5        7.926713                                       +
  +           6        8.364871                                       +
  +           7        9.961492                                       +
  +           8       10.479027                                       +
  +           9       13.415960                                       +
  +          10       16.038584                                       +
  +          11       16.865232                                       +
  +          12       18.514091                                       +
  +          13       20.132992                                       +
  +          14       21.765894                                       +
  + ----------------------------------------------------------------- +
  +  Spin=1 kpt=    4 (  0.500000  0.333333  0.666667) kpt-group=  1  +
  + ----------------------------------------------------------------- +
  +                                                                   +
  +           1       -4.080313                                       +
  +           2       -2.286954                                       +
  +           3        0.324164                                       +
  +           4        1.658408                                       +
  +           5        7.656569                                       +
  +           6        8.022931                                       +
  +           7       10.571765                                       +
  +           8       11.049119                                       +
  +           9       12.245089                                       +
  +          10       15.878195                                       +
  +          11       16.605011                                       +
  +          12       17.652695                                       +
  +          13       21.040435                                       +
  +          14       21.496785                                       +
  + ----------------------------------------------------------------- +
  +  Spin=1 kpt=    5 (  0.500000  0.361111  0.638889) kpt-group=  1  +
  + ----------------------------------------------------------------- +
  +                                                                   +
  +           1       -4.369129                                       +
  +           2       -2.296725                                       +
  +           3        0.726670                                       +
  +           4        2.123084                                       +
  +           5        7.468443                                       +
  +           6        7.697326                                       +
  +           7       11.086681                                       +
  +           8       11.262675                                       +
  +           9       11.626955                                       +
  +          10       15.386739                                       +
  +          11       16.386707                                       +
  +          12       17.025359                                       +
  +          13       20.585169                                       +
  +          14       21.005371                                       +
  + ----------------------------------------------------------------- +
  +  Spin=1 kpt=    6 (  0.500000  0.388889  0.611111) kpt-group=  1  +
  + ----------------------------------------------------------------- +
  +                                                                   +
  +           1       -4.610847                                       +
  +           2       -2.376791                                       +
  +           3        1.285732                                       +
  +           4        2.564418                                       +
  +           5        7.386232                                       +
  +           6        7.393075                                       +
  +           7        9.992400                                       +
  +           8       12.015376                                       +
  +           9       12.132543                                       +
  +          10       14.718761                                       +
  +          11       16.207496                                       +
  +          12       16.703722                                       +
  +          13       19.833488                                       +
  +          14       19.923666                                       +
  + ----------------------------------------------------------------- +
  +  Spin=1 kpt=    7 (  0.500000  0.416667  0.583333) kpt-group=  1  +
  + ----------------------------------------------------------------- +
  +                                                                   +
  +           1       -4.801332                                       +
  +           2       -2.473416                                       +
  +           3        1.934669                                       +
  +           4        2.946979                                       +
  +           5        7.087900                                       +
  +           6        7.409184                                       +
  +           7        9.020546                                       +
  +           8       12.331373                                       +
  +           9       12.829223                                       +
  +          10       14.340450                                       +
  +          11       16.065237                                       +
  +          12       16.513852                                       +
  +          13       18.811824                                       +
  +          14       19.053358                                       +
  + ----------------------------------------------------------------- +
  +  Spin=1 kpt=    8 (  0.500000  0.444444  0.555556) kpt-group=  1  +
  + ----------------------------------------------------------------- +
  +                                                                   +
  +           1       -4.941707                                       +
  +           2       -2.556418                                       +
  +           3        2.608316                                       +
  +           4        3.235999                                       +
  +           5        6.718350                                       +
  +           6        7.522709                                       +
  +           7        8.274715                                       +
  +           8       12.039730                                       +
  +           9       13.697864                                       +
  +          10       14.566197                                       +
  +          11       15.961090                                       +
  +          12       16.354718                                       +
  +          13       17.715248                                       +
  +          14       18.306031                                       +
  + ----------------------------------------------------------------- +
  +  Spin=1 kpt=    9 (  0.500000  0.472222  0.527778) kpt-group=  1  +
  + ----------------------------------------------------------------- +
  +                                                                   +
  +           1       -5.024683                                       +
  +           2       -2.610663                                       +
  +           3        3.202616                                       +
  +           4        3.414218                                       +
  +           5        6.280552                                       +
  +           6        7.667443                                       +
  +           7        7.858056                                       +
  +           8       11.638692                                       +
  +           9       14.617420                                       +
  +          10       15.089429                                       +
  +          11       15.892870                                       +
  +          12       16.167823                                       +
  +          13       16.661834                                       +
  +          14       17.704795                                       +
  + ----------------------------------------------------------------- +
  +  Spin=1 kpt=   10 (  0.500000  0.500000  0.500000) kpt-group=  1  +
  + ----------------------------------------------------------------- +
  +                                                                   +
  +           1       -5.051010                                       +
  +           2       -2.627155                                       +
  +           3        3.475457                                       +
  +           4        3.475457                                       +
  +           5        6.047674                                       +
  +           6        7.747954                                       +
  +           7        7.747954                                       +
  +           8       11.468280                                       +
  +           9       15.470943                                       +
  +          10       15.470943                                       +
  +          11       15.685178                                       +
  +          12       15.979850                                       +
  +          13       15.979850                                       +
  +          14       17.460846                                       +
  + ----------------------------------------------------------------- +
  +  Spin=1 kpt=   11 (  0.454545  0.454545  0.454545) kpt-group=  1  +
  + ----------------------------------------------------------------- +
  +                                                                   +
  +           1       -5.183223                                       +
  +           2       -2.445182                                       +
  +           3        3.488204                                       +
  +           4        3.488204                                       +
  +           5        6.062096                                       +
  +           6        7.757542                                       +
  +           7        7.757542                                       +
  +           8       11.501031                                       +
  +           9       14.719056                                       +
  +          10       14.719056                                       +
  +          11       15.319062                                       +
  +          12       16.778217                                       +
  +          13       16.778217                                       +
  +          14       17.771019                                       +
  + ----------------------------------------------------------------- +
  +  Spin=1 kpt=   12 (  0.409091  0.409091  0.409091) kpt-group=  1  +
  + ----------------------------------------------------------------- +
  +                                                                   +
  +           1       -5.491709                                       +
  +           2       -1.977378                                       +
  +           3        3.533401                                       +
  +           4        3.533401                                       +
  +           5        6.113285                                       +
  +           6        7.816695                                       +
  +           7        7.816695                                       +
  +           8       11.597038                                       +
  +           9       13.848864                                       +
  +          10       13.848864                                       +
  +          11       14.622214                                       +
  +          12       17.844877                                       +
  +          13       17.844877                                       +
  +          14       18.249693                                       +
  + ----------------------------------------------------------------- +
  +  Spin=1 kpt=   13 (  0.363636  0.363636  0.363636) kpt-group=  1  +
  + ----------------------------------------------------------------- +
  +                                                                   +
  +           1       -5.861256                                       +
  +           2       -1.345769                                       +
  +           3        3.608530                                       +
  +           4        3.608530                                       +
  +           5        6.194197                                       +
  +           6        7.900871                                       +
  +           7        7.900871                                       +
  +           8       11.733514                                       +
  +           9       13.064102                                       +
  +          10       13.064102                                       +
  +          11       13.867724                                       +
  +          12       18.246240                                       +
  +          13       18.912247                                       +
  +          14       18.912247                                       +
  + ----------------------------------------------------------------- +
  +  Spin=1 kpt=   14 (  0.318182  0.318182  0.318182) kpt-group=  1  +
  + ----------------------------------------------------------------- +
  +                                                                   +
  +           1       -6.227259                                       +
  +           2       -0.613168                                       +
  +           3        3.714540                                       +
  +           4        3.714540                                       +
  +           5        6.308084                                       +
  +           6        7.984119                                       +
  +           7        7.984119                                       +
  +           8       11.848643                                       +
  +           9       12.409338                                       +
  +          10       12.409338                                       +
  +          11       13.188399                                       +
  +          12       17.505028                                       +
  +          13       19.808315                                       +
  +          14       19.808315                                       +
  + ----------------------------------------------------------------- +
  +  Spin=1 kpt=   15 (  0.272727  0.272727  0.272727) kpt-group=  1  +
  + ----------------------------------------------------------------- +
  +                                                                   +
  +           1       -6.563584                                       +
  +           2        0.190600                                       +
  +           3        3.850066                                       +
  +           4        3.850066                                       +
  +           5        6.460605                                       +
  +           6        8.025561                                       +
  +           7        8.025561                                       +
  +           8       11.686079                                       +
  +           9       11.931207                                       +
  +          10       11.931207                                       +
  +          11       12.837583                                       +
  +          12       16.472172                                       +
  +          13       19.701485                                       +
  +          14       19.701486                                       +
  + ----------------------------------------------------------------- +
  +  Spin=1 kpt=   16 (  0.227273  0.227273  0.227273) kpt-group=  1  +
  + ----------------------------------------------------------------- +
  +                                                                   +
  +           1       -6.859494                                       +
  +           2        1.042621                                       +
  +           3        4.008354                                       +
  +           4        4.008354                                       +
  +           5        6.620890                                       +
  +           6        7.976099                                       +
  +           7        7.976099                                       +
  +           8       11.102243                                       +
  +           9       11.659772                                       +
  +          10       11.659772                                       +
  +          11       12.909914                                       +
  +          12       15.469313                                       +
  +          13       18.797927                                       +
  +          14       18.797927                                       +
  + ----------------------------------------------------------------- +
  +  Spin=1 kpt=   17 (  0.181818  0.181818  0.181818) kpt-group=  1  +
  + ----------------------------------------------------------------- +
  +                                                                   +
  +           1       -7.103748                                       +
  +           2        1.929019                                       +
  +           3        4.192042                                       +
  +           4        4.192042                                       +
  +           5        6.797674                                       +
  +           6        7.813493                                       +
  +           7        7.813493                                       +
  +           8       10.358626                                       +
  +           9       11.600967                                       +
  +          10       11.600967                                       +
  +          11       12.975534                                       +
  +          12       14.752650                                       +
  +          13       17.824067                                       +
  +          14       17.824067                                       +
  + ----------------------------------------------------------------- +
  +  Spin=1 kpt=   18 (  0.136364  0.136364  0.136364) kpt-group=  1  +
  + ----------------------------------------------------------------- +
  +                                                                   +
  +           1       -7.297682                                       +
  +           2        2.828272                                       +
  +           3        4.386239                                       +
  +           4        4.386239                                       +
  +           5        6.975578                                       +
  +           6        7.570596                                       +
  +           7        7.570596                                       +
  +           8        9.592465                                       +
  +           9       11.766916                                       +
  +          10       11.766916                                       +
  +          11       12.679705                                       +
  +          12       14.611189                                       +
  +          13       16.920960                                       +
  +          14       16.920960                                       +
  + ----------------------------------------------------------------- +
  +  Spin=1 kpt=   19 (  0.090909  0.090909  0.090909) kpt-group=  1  +
  + ----------------------------------------------------------------- +
  +                                                                   +
  +           1       -7.437296                                       +
  +           2        3.698183                                       +
  +           3        4.571393                                       +
  +           4        4.571393                                       +
  +           5        7.095869                                       +
  +           6        7.311109                                       +
  +           7        7.311109                                       +
  +           8        8.855309                                       +
  +           9       12.052925                                       +
  +          10       12.052925                                       +
  +          11       12.184966                                       +
  +          12       14.874694                                       +
  +          13       16.137041                                       +
  +          14       16.137041                                       +
  + ----------------------------------------------------------------- +
  +  Spin=1 kpt=   20 (  0.045455  0.045455  0.045455) kpt-group=  1  +
  + ----------------------------------------------------------------- +
  +                                                                   +
  +           1       -7.519442                                       +
  +           2        4.436580                                       +
  +           3        4.714607                                       +
  +           4        4.714607                                       +
  +           5        7.105679                                       +
  +           6        7.110558                                       +
  +           7        7.110558                                       +
  +           8        8.294845                                       +
  +           9       11.810200                                       +
  +          10       12.347119                                       +
  +          11       12.347119                                       +
  +          12       15.192697                                       +
  +          13       15.561046                                       +
  +          14       15.561046                                       +
  + ----------------------------------------------------------------- +
  +  Spin=1 kpt=   21 (  0.000000  0.000000  0.000000) kpt-group=  1  +
  + ----------------------------------------------------------------- +
  +                                                                   +
  +           1       -7.547623                                       +
  +           2        4.769751                                       +
  +           3        4.769751                                       +
  +           4        4.769758                                       +
  +           5        7.033141                                       +
  +           6        7.033141                                       +
  +           7        7.033144                                       +
  +           8        8.100716                                       +
  +           9       11.673118                                       +
  +          10       12.480862                                       +
  +          11       12.480862                                       +
  +          12       15.334466                                       +
  +          13       15.334466                                       +
  +          14       15.334467                                       +
  + ----------------------------------------------------------------- +
  +  Spin=1 kpt=   22 (  0.041667  0.000000  0.041667) kpt-group=  1  +
  + ----------------------------------------------------------------- +
  +                                                                   +
  +           1       -7.516041                                       +
  +           2        4.569482                                       +
  +           3        4.616158                                       +
  +           4        4.616162                                       +
  +           5        6.940407                                       +
  +           6        7.224916                                       +
  +           7        7.224919                                       +
  +           8        8.292995                                       +
  +           9       11.826277                                       +
  +          10       12.157999                                       +
  +          11       12.515785                                       +
  +          12       15.391657                                       +
  +          13       15.391657                                       +
  +          14       15.547776                                       +
  + ----------------------------------------------------------------- +
  +  Spin=1 kpt=   23 (  0.083333  0.000000  0.083333) kpt-group=  1  +
  + ----------------------------------------------------------------- +
  +                                                                   +
  +           1       -7.423048                                       +
  +           2        4.072980                                       +
  +           3        4.258879                                       +
  +           4        4.258883                                       +
  +           5        6.691621                                       +
  +           6        7.694401                                       +
  +           7        7.694404                                       +
  +           8        8.724245                                       +
  +           9       11.494542                                       +
  +          10       12.249547                                       +
  +          11       12.620540                                       +
  +          12       15.560438                                       +
  +          13       15.560439                                       +
  +          14       15.960376                                       +
  + ----------------------------------------------------------------- +
  +  Spin=1 kpt=   24 (  0.125000  0.000000  0.125000) kpt-group=  1  +
  + ----------------------------------------------------------------- +
  +                                                                   +
  +           1       -7.265947                                       +
  +           2        3.430988                                       +
  +           3        3.836784                                       +
  +           4        3.836788                                       +
  +           5        6.361742                                       +
  +           6        8.303859                                       +
  +           7        8.303861                                       +
  +           8        9.027592                                       +
  +           9       11.019006                                       +
  +          10       12.795080                                       +
  +          11       12.875735                                       +
  +          12       15.846304                                       +
  +          13       15.846304                                       +
  +          14       16.391641                                       +
  + ----------------------------------------------------------------- +
  +  Spin=1 kpt=   25 (  0.166667  0.000000  0.166667) kpt-group=  1  +
  + ----------------------------------------------------------------- +
  +                                                                   +
  +           1       -7.046668                                       +
  +           2        2.723689                                       +
  +           3        3.416769                                       +
  +           4        3.416773                                       +
  +           5        6.009383                                       +
  +           6        8.735152                                       +
  +           7        8.992188                                       +
  +           8        8.992191                                       +
  +           9       11.240813                                       +
  +          10       13.048355                                       +
  +          11       13.639790                                       +
  +          12       16.245884                                       +
  +          13       16.245884                                       +
  +          14       16.834423                                       +
  + ----------------------------------------------------------------- +
  +  Spin=1 kpt=   26 (  0.208333  0.000000  0.208333) kpt-group=  1  +
  + ----------------------------------------------------------------- +
  +                                                                   +
  +           1       -6.765842                                       +
  +           2        1.983909                                       +
  +           3        3.025196                                       +
  +           4        3.025199                                       +
  +           5        5.666253                                       +
  +           6        8.067458                                       +
  +           7        9.713632                                       +
  +           8        9.713634                                       +
  +           9       11.939558                                       +
  +          10       13.363120                                       +
  +          11       14.492791                                       +
  +          12       16.756303                                       +
  +          13       16.756304                                       +
  +          14       17.337965                                       +
  + ----------------------------------------------------------------- +
  +  Spin=1 kpt=   27 (  0.250000  0.000000  0.250000) kpt-group=  1  +
  + ----------------------------------------------------------------- +
  +                                                                   +
  +           1       -6.425824                                       +
  +           2        1.222367                                       +
  +           3        2.670335                                       +
  +           4        2.670338                                       +
  +           5        5.358362                                       +
  +           6        7.339870                                       +
  +           7       10.452886                                       +
  +           8       10.452888                                       +
  +           9       12.778981                                       +
  +          10       13.745543                                       +
  +          11       15.393805                                       +
  +          12       17.344563                                       +
  +          13       17.344564                                       +
  +          14       17.870699                                       +
  + ----------------------------------------------------------------- +
  +  Spin=1 kpt=   28 (  0.291667  0.000000  0.291667) kpt-group=  1  +
  + ----------------------------------------------------------------- +
  +                                                                   +
  +           1       -6.024494                                       +
  +           2        0.457970                                       +
  +           3        2.367632                                       +
  +           4        2.367634                                       +
  +           5        5.105335                                       +
  +           6        6.684055                                       +
  +           7       11.220479                                       +
  +           8       11.220482                                       +
  +           9       13.677980                                       +
  +          10       14.216557                                       +
  +          11       16.299780                                       +
  +          12       17.969500                                       +
  +          13       17.969502                                       +
  +          14       18.535341                                       +
  + ----------------------------------------------------------------- +
  +  Spin=1 kpt=   29 (  0.333333  0.000000  0.333333) kpt-group=  1  +
  + ----------------------------------------------------------------- +
  +                                                                   +
  +           1       -5.568460                                       +
  +           2       -0.309363                                       +
  +           3        2.112356                                       +
  +           4        2.112358                                       +
  +           5        4.906407                                       +
  +           6        6.117785                                       +
  +           7       11.995110                                       +
  +           8       11.995112                                       +
  +           9       14.549043                                       +
  +          10       14.736207                                       +
  +          11       17.127252                                       +
  +          12       18.320431                                       +
  +          13       18.320436                                       +
  +          14       19.316247                                       +
  + ----------------------------------------------------------------- +
  +  Spin=1 kpt=   30 (  0.375000  0.000000  0.375000) kpt-group=  1  +
  + ----------------------------------------------------------------- +
  +                                                                   +
  +           1       -5.057783                                       +
  +           2       -1.069827                                       +
  +           3        1.911875                                       +
  +           4        1.911876                                       +
  +           5        4.773633                                       +
  +           6        5.649870                                       +
  +           7       12.779637                                       +
  +           8       12.779639                                       +
  +           9       15.324692                                       +
  +          10       15.387807                                       +
  +          11       17.756619                                       +
  +          12       17.964415                                       +
  +          13       17.964420                                       +
  +          14       20.220970                                       +
  + ----------------------------------------------------------------- +
  +  Spin=1 kpt=   31 (  0.416667  0.000000  0.416667) kpt-group=  1  +
  + ----------------------------------------------------------------- +
  +                                                                   +
  +           1       -4.493158                                       +
  +           2       -1.815059                                       +
  +           3        1.768774                                       +
  +           4        1.768776                                       +
  +           5        4.714431                                       +
  +           6        5.280759                                       +
  +           7       13.567414                                       +
  +           8       13.567416                                       +
  +           9       15.981617                                       +
  +          10       16.174614                                       +
  +          11       17.236972                                       +
  +          12       17.236976                                       +
  +          13       18.037501                                       +
  +          14       19.281086                                       +
  + ----------------------------------------------------------------- +
  +  Spin=1 kpt=   32 (  0.458333  0.000000  0.458333) kpt-group=  1  +
  + ----------------------------------------------------------------- +
  +                                                                   +
  +           1       -3.883797                                       +
  +           2       -2.538115                                       +
  +           3        1.680814                                       +
  +           4        1.680816                                       +
  +           5        4.727787                                       +
  +           6        5.003567                                       +
  +           7       14.316366                                       +
  +           8       14.316369                                       +
  +           9       16.445185                                       +
  +          10       16.445188                                       +
  +          11       16.697450                                       +
  +          12       16.877494                                       +
  +          13       17.913128                                       +
  +          14       18.346926                                       +
  + ----------------------------------------------------------------- +
  +  Spin=1 kpt=   33 (  0.500000  0.000000  0.500000) kpt-group=  1  +
  + ----------------------------------------------------------------- +
  +                                                                   +
  +           1       -3.230527                                       +
  +           2       -3.230520                                       +
  +           3        1.651660                                       +
  +           4        1.651663                                       +
  +           5        4.816730                                       +
  +           6        4.816731                                       +
  +           7       14.760854                                       +
  +           8       14.760856                                       +
  +           9       15.976704                                       +
  +          10       15.976707                                       +
  +          11       17.485354                                       +
  +          12       17.485378                                       +
  +          13       17.488961                                       +
  +          14       17.488962                                       +
  + ----------------------------------------------------------------- +
  +  Spin=1 kpt=   34 (  0.500000  0.041667  0.541667) kpt-group=  1  +
  + ----------------------------------------------------------------- +
  +                                                                   +
  +           1       -3.217121                                       +
  +           2       -3.217113                                       +
  +           3        1.537599                                       +
  +           4        1.537601                                       +
  +           5        5.010449                                       +
  +           6        5.010451                                       +
  +           7       14.459745                                       +
  +           8       14.459748                                       +
  +           9       15.638453                                       +
  +          10       15.638453                                       +
  +          11       17.513334                                       +
  +          12       17.513336                                       +
  +          13       18.141950                                       +
  +          14       18.141958                                       +
  + ----------------------------------------------------------------- +
  +  Spin=1 kpt=   35 (  0.500000  0.083333  0.583333) kpt-group=  1  +
  + ----------------------------------------------------------------- +
  +                                                                   +
  +           1       -3.179737                                       +
  +           2       -3.179728                                       +
  +           3        1.265544                                       +
  +           4        1.265544                                       +
  +           5        5.518692                                       +
  +           6        5.518696                                       +
  +           7       13.566484                                       +
  +           8       13.566485                                       +
  +           9       15.437271                                       +
  +          10       15.437272                                       +
  +          11       17.570155                                       +
  +          12       17.570158                                       +
  +          13       19.281603                                       +
  +          14       19.281606                                       +
  + ----------------------------------------------------------------- +
  +  Spin=1 kpt=   36 (  0.500000  0.125000  0.625000) kpt-group=  1  +
  + ----------------------------------------------------------------- +
  +                                                                   +
  +           1       -3.129131                                       +
  +           2       -3.129121                                       +
  +           3        0.951837                                       +
  +           4        0.951838                                       +
  +           5        6.224802                                       +
  +           6        6.224806                                       +
  +           7       12.456625                                       +
  +           8       12.456626                                       +
  +           9       15.394292                                       +
  +          10       15.394293                                       +
  +          11       17.623722                                       +
  +          12       17.623725                                       +
  +          13       20.411426                                       +
  +          14       20.411427                                       +
  + ----------------------------------------------------------------- +
  +  Spin=1 kpt=   37 (  0.500000  0.166667  0.666667) kpt-group=  1  +
  + ----------------------------------------------------------------- +
  +                                                                   +
  +           1       -3.074086                                       +
  +           2       -3.074075                                       +
  +           3        0.679774                                       +
  +           4        0.679775                                       +
  +           5        7.060433                                       +
  +           6        7.060439                                       +
  +           7       11.326126                                       +
  +           8       11.326131                                       +
  +           9       15.392208                                       +
  +          10       15.392211                                       +
  +          11       17.696453                                       +
  +          12       17.696457                                       +
  +          13       21.016830                                       +
  +          14       21.016833                                       +
  + ----------------------------------------------------------------- +
  +  Spin=1 kpt=   38 (  0.500000  0.208333  0.708333) kpt-group=  1  +
  + ----------------------------------------------------------------- +
  +                                                                   +
  +           1       -3.031945                                       +
  +           2       -3.031933                                       +
  +           3        0.496469                                       +
  +           4        0.496470                                       +
  +           5        7.959003                                       +
  +           6        7.959008                                       +
  +           7       10.244664                                       +
  +           8       10.244670                                       +
  +           9       15.397167                                       +
  +          10       15.397170                                       +
  +          11       17.749741                                       +
  +          12       17.749747                                       +
  +          13       20.896436                                       +
  +          14       20.896440                                       +
  + ----------------------------------------------------------------- +
  +  Spin=1 kpt=   39 (  0.500000  0.250000  0.750000) kpt-group=  1  +
  + ----------------------------------------------------------------- +
  +                                                                   +
  +           1       -3.013960                                       +
  +           2       -3.013951                                       +
  +           3        0.432237                                       +
  +           4        0.432237                                       +
  +           5        8.619138                                       +
  +           6        8.619142                                       +
  +           7        9.526629                                       +
  +           8        9.526639                                       +
  +           9       15.399901                                       +
  +          10       15.399904                                       +
  +          11       17.777500                                       +
  +          12       17.777508                                       +
  +          13       20.820524                                       +
  +          14       20.820527                                       +
  + ----------------------------------------------------------------- +
  +  Spin=1 kpt=   40 (  0.475000  0.275000  0.750000) kpt-group=  1  +
  + ----------------------------------------------------------------- +
  +                                                                   +
  +           1       -3.225717                                       +
  +           2       -2.825053                                       +
  +           3        0.257666                                       +
  +           4        0.697373                                       +
  +           5        7.929354                                       +
  +           6        8.684866                                       +
  +           7        9.881103                                       +
  +           8        9.884924                                       +
  +           9       14.905501                                       +
  +          10       15.667665                                       +
  +          11       17.459301                                       +
  +          12       18.257986                                       +
  +          13       20.414985                                       +
  +          14       21.125186                                       +
  + ----------------------------------------------------------------- +
  +  Spin=1 kpt=   41 (  0.450000  0.300000  0.750000) kpt-group=  1  +
  + ----------------------------------------------------------------- +
  +                                                                   +
  +           1       -3.389990                                       +
  +           2       -2.716070                                       +
  +           3        0.119383                                       +
  +           4        1.086054                                       +
  +           5        7.028594                                       +
  +           6        8.632213                                       +
  +           7       10.420330                                       +
  +           8       10.572597                                       +
  +           9       14.341547                                       +
  +          10       15.366340                                       +
  +          11       17.639263                                       +
  +          12       18.784304                                       +
  +          13       20.123849                                       +
  +          14       21.020238                                       +
  + ----------------------------------------------------------------- +
  +  Spin=1 kpt=   42 (  0.425000  0.325000  0.750000) kpt-group=  1  +
  + ----------------------------------------------------------------- +
  +                                                                   +
  +           1       -3.507791                                       +
  +           2       -2.662246                                       +
  +           3        0.019440                                       +
  +           4        1.537475                                       +
  +           5        6.214349                                       +
  +           6        8.563498                                       +
  +           7       11.037001                                       +
  +           8       11.333932                                       +
  +           9       13.735606                                       +
  +          10       14.672082                                       +
  +          11       18.178641                                       +
  +          12       19.309010                                       +
  +          13       19.950755                                       +
  +          14       20.766969                                       +
  + ----------------------------------------------------------------- +
  +  Spin=1 kpt=   43 (  0.400000  0.350000  0.750000) kpt-group=  1  +
  + ----------------------------------------------------------------- +
  +                                                                   +
  +           1       -3.575892                                       +
  +           2       -2.638842                                       +
  +           3       -0.040790                                       +
  +           4        1.938936                                       +
  +           5        5.600640                                       +
  +           6        8.518908                                       +
  +           7       11.663135                                       +
  +           8       12.132739                                       +
  +           9       13.117991                                       +
  +          10       13.868490                                       +
  +          11       18.756902                                       +
  +          12       19.768693                                       +
  +          13       19.926423                                       +
  +          14       20.561292                                       +
  + ----------------------------------------------------------------- +
  +  Spin=1 kpt=   44 (  0.375000  0.375000  0.750000) kpt-group=  1  +
  + ----------------------------------------------------------------- +
  +                                                                   +
  +           1       -3.598065                                       +
  +           2       -2.632213                                       +
  +           3       -0.061037                                       +
  +           4        2.114314                                       +
  +           5        5.360204                                       +
  +           6        8.503583                                       +
  +           7       12.099161                                       +
  +           8       12.686783                                       +
  +           9       12.781005                                       +
  +          10       13.216742                                       +
  +          11       19.035240                                       +
  +          12       19.993956                                       +
  +          13       20.150955                                       +
  +          14       20.400937                                       +
[...]
  +  Spin=2 kpt=   31 (  0.416667  0.000000  0.416667) kpt-group=  1  +
  + ----------------------------------------------------------------- +
  +                                                                   +
  +           1       -4.493158                                       +
  +           2       -1.815059                                       +
  +           3        1.768774                                       +
  +           4        1.768776                                       +
  +           5        4.714431                                       +
  +           6        5.280759                                       +
  +           7       13.567414                                       +
  +           8       13.567416                                       +
  +           9       15.981617                                       +
  +          10       16.174614                                       +
  +          11       17.236971                                       +
  +          12       17.236976                                       +
  +          13       18.037502                                       +
  +          14       19.281086                                       +
  + ----------------------------------------------------------------- +
  +  Spin=2 kpt=   32 (  0.458333  0.000000  0.458333) kpt-group=  1  +
  + ----------------------------------------------------------------- +
  +                                                                   +
  +           1       -3.883797                                       +
  +           2       -2.538115                                       +
  +           3        1.680813                                       +
  +           4        1.680816                                       +
  +           5        4.727787                                       +
  +           6        5.003567                                       +
  +           7       14.316366                                       +
  +           8       14.316369                                       +
  +           9       16.445185                                       +
  +          10       16.445188                                       +
  +          11       16.697450                                       +
  +          12       16.877494                                       +
  +          13       17.913128                                       +
  +          14       18.346926                                       +
  + ----------------------------------------------------------------- +
  +  Spin=2 kpt=   33 (  0.500000  0.000000  0.500000) kpt-group=  1  +
  + ----------------------------------------------------------------- +
  +                                                                   +
  +           1       -3.230527                                       +
  +           2       -3.230520                                       +
  +           3        1.651660                                       +
  +           4        1.651663                                       +
  +           5        4.816730                                       +
  +           6        4.816731                                       +
  +           7       14.760854                                       +
  +           8       14.760856                                       +
  +           9       15.976704                                       +
  +          10       15.976707                                       +
  +          11       17.485353                                       +
  +          12       17.485378                                       +
  +          13       17.488961                                       +
  +          14       17.488962                                       +
  + ----------------------------------------------------------------- +
  +  Spin=2 kpt=   34 (  0.500000  0.041667  0.541667) kpt-group=  1  +
  + ----------------------------------------------------------------- +
  +                                                                   +
  +           1       -3.217121                                       +
  +           2       -3.217113                                       +
  +           3        1.537599                                       +
  +           4        1.537601                                       +
  +           5        5.010449                                       +
  +           6        5.010451                                       +
  +           7       14.459745                                       +
  +           8       14.459748                                       +
  +           9       15.638453                                       +
  +          10       15.638453                                       +
  +          11       17.513334                                       +
  +          12       17.513336                                       +
  +          13       18.141950                                       +
  +          14       18.141958                                       +
  + ----------------------------------------------------------------- +
  +  Spin=2 kpt=   35 (  0.500000  0.083333  0.583333) kpt-group=  1  +
  + ----------------------------------------------------------------- +
  +                                                                   +
  +           1       -3.179737                                       +
  +           2       -3.179728                                       +
  +           3        1.265544                                       +
  +           4        1.265544                                       +
  +           5        5.518692                                       +
  +           6        5.518696                                       +
  +           7       13.566484                                       +
  +           8       13.566485                                       +
  +           9       15.437271                                       +
  +          10       15.437272                                       +
  +          11       17.570155                                       +
  +          12       17.570157                                       +
  +          13       19.281604                                       +
  +          14       19.281606                                       +
  + ----------------------------------------------------------------- +
  +  Spin=2 kpt=   36 (  0.500000  0.125000  0.625000) kpt-group=  1  +
  + ----------------------------------------------------------------- +
  +                                                                   +
  +           1       -3.129131                                       +
  +           2       -3.129121                                       +
  +           3        0.951837                                       +
  +           4        0.951838                                       +
  +           5        6.224802                                       +
  +           6        6.224806                                       +
  +           7       12.456625                                       +
  +           8       12.456626                                       +
  +           9       15.394292                                       +
  +          10       15.394293                                       +
  +          11       17.623722                                       +
  +          12       17.623725                                       +
  +          13       20.411426                                       +
  +          14       20.411427                                       +
  + ----------------------------------------------------------------- +
  +  Spin=2 kpt=   37 (  0.500000  0.166667  0.666667) kpt-group=  1  +
  + ----------------------------------------------------------------- +
  +                                                                   +
  +           1       -3.074086                                       +
  +           2       -3.074075                                       +
  +           3        0.679774                                       +
  +           4        0.679775                                       +
  +           5        7.060433                                       +
  +           6        7.060439                                       +
  +           7       11.326126                                       +
  +           8       11.326131                                       +
  +           9       15.392208                                       +
  +          10       15.392211                                       +
  +          11       17.696453                                       +
  +          12       17.696457                                       +
  +          13       21.016830                                       +
  +          14       21.016833                                       +
  + ----------------------------------------------------------------- +
  +  Spin=2 kpt=   38 (  0.500000  0.208333  0.708333) kpt-group=  1  +
  + ----------------------------------------------------------------- +
  +                                                                   +
  +           1       -3.031945                                       +
  +           2       -3.031933                                       +
  +           3        0.496469                                       +
  +           4        0.496470                                       +
  +           5        7.959003                                       +
  +           6        7.959008                                       +
  +           7       10.244664                                       +
  +           8       10.244670                                       +
  +           9       15.397167                                       +
  +          10       15.397170                                       +
  +          11       17.749741                                       +
  +          12       17.749747                                       +
  +          13       20.896436                                       +
  +          14       20.896440                                       +
  + ----------------------------------------------------------------- +
  +  Spin=2 kpt=   39 (  0.500000  0.250000  0.750000) kpt-group=  1  +
  + ----------------------------------------------------------------- +
  +                                                                   +
  +           1       -3.013960                                       +
  +           2       -3.013951                                       +
  +           3        0.432237                                       +
  +           4        0.432237                                       +
  +           5        8.619138                                       +
  +           6        8.619142                                       +
  +           7        9.526629                                       +
  +           8        9.526639                                       +
  +           9       15.399901                                       +
  +          10       15.399904                                       +
  +          11       17.777500                                       +
  +          12       17.777508                                       +
  +          13       20.820524                                       +
  +          14       20.820528                                       +
  + ----------------------------------------------------------------- +
  +  Spin=2 kpt=   40 (  0.475000  0.275000  0.750000) kpt-group=  1  +
  + ----------------------------------------------------------------- +
  +                                                                   +
  +           1       -3.225717                                       +
  +           2       -2.825053                                       +
  +           3        0.257666                                       +
  +           4        0.697373                                       +
  +           5        7.929354                                       +
  +           6        8.684866                                       +
  +           7        9.881103                                       +
  +           8        9.884924                                       +
  +           9       14.905501                                       +
  +          10       15.667665                                       +
  +          11       17.459301                                       +
  +          12       18.257987                                       +
  +          13       20.414985                                       +
  +          14       21.125186                                       +
  + ----------------------------------------------------------------- +
  +  Spin=2 kpt=   41 (  0.450000  0.300000  0.750000) kpt-group=  1  +
  + ----------------------------------------------------------------- +
  +                                                                   +
  +           1       -3.389990                                       +
  +           2       -2.716070                                       +
  +           3        0.119383                                       +
  +           4        1.086054                                       +
  +           5        7.028594                                       +
  +           6        8.632213                                       +
  +           7       10.420330                                       +
  +           8       10.572597                                       +
  +           9       14.341547                                       +
  +          10       15.366340                                       +
  +          11       17.639263                                       +
  +          12       18.784304                                       +
  +          13       20.123849                                       +
  +          14       21.020238                                       +
  + ----------------------------------------------------------------- +
  +  Spin=2 kpt=   42 (  0.425000  0.325000  0.750000) kpt-group=  1  +
  + ----------------------------------------------------------------- +
  +                                                                   +
  +           1       -3.507791                                       +
  +           2       -2.662246                                       +
  +           3        0.019440                                       +
  +           4        1.537475                                       +
  +           5        6.214349                                       +
  +           6        8.563498                                       +
  +           7       11.037001                                       +
  +           8       11.333932                                       +
  +           9       13.735606                                       +
  +          10       14.672082                                       +
  +          11       18.178641                                       +
  +          12       19.309010                                       +
  +          13       19.950755                                       +
  +          14       20.766969                                       +
  + ----------------------------------------------------------------- +
  +  Spin=2 kpt=   43 (  0.400000  0.350000  0.750000) kpt-group=  1  +
  + ----------------------------------------------------------------- +
  +                                                                   +
  +           1       -3.575892                                       +
  +           2       -2.638842                                       +
  +           3       -0.040790                                       +
  +           4        1.938937                                       +
  +           5        5.600640                                       +
  +           6        8.518908                                       +
  +           7       11.663135                                       +
  +           8       12.132739                                       +
  +           9       13.117991                                       +
  +          10       13.868490                                       +
  +          11       18.756902                                       +
  +          12       19.768693                                       +
  +          13       19.926423                                       +
  +          14       20.561293                                       +
  + ----------------------------------------------------------------- +
  +  Spin=2 kpt=   44 (  0.375000  0.375000  0.750000) kpt-group=  1  +
  + ----------------------------------------------------------------- +
  +                                                                   +
  +           1       -3.598065                                       +
  +           2       -2.632213                                       +
  +           3       -0.061037                                       +
  +           4        2.114314                                       +
  +           5        5.360204                                       +
  +           6        8.503583                                       +
  +           7       12.099161                                       +
  +           8       12.686783                                       +
  +           9       12.781005                                       +
  +          10       13.216742                                       +
  +          11       19.035240                                       +
  +          12       19.993952                                       +
  +          13       20.150955                                       +
  +          14       20.400915                                       +
  =====================================================================

Writing model to Si2.orbitals

 ***************** Symmetrised Forces *****************
 *                                                    *
 *            Cartesian components (eV/A)             *
 * -------------------------------------------------- *
 *                   x            y            z      *
 *                                                    *
 * Si        1      0.00000      0.00000      0.00000 *
 * Si        2      0.00000      0.00000      0.00000 *
 *                                                    *
 ******************************************************

 Pseudo atomic calculation performed for Si 3s2 3p2

 Converged in 16 iterations to a total energy of -101.8630 eV

Charge spilling parameter for spin component 1 = 0.68%
Charge spilling parameter for spin component 2 = 0.68%

     Atomic Populations (Mulliken)
     -----------------------------
Species   Ion     s      p      d      f     Total  Charge (e)  Spin (hbar/2)
===========================================================================
  Si       1     1.32   2.68   0.00   0.00   4.00     0.00        0.00
  Si       2     1.32   2.68   0.00   0.00   4.00     0.00        0.00
===========================================================================

            Bond              Population        Spin       Length (A)
======================================================================
         Si 1 -- Si 2              2.99         0.00          2.33434
======================================================================


Writing analysis data to Si2.castep_bin

Writing model to Si2.check
 
 A BibTeX formatted list of references used in this run has been written to 
 Si2.bib
 
Initialisation time =      0.08 s
Calculation time    =     12.16 s
Finalisation time   =      0.02 s
Total time          =     12.26 s
