 +-------------------------------------------------+
 |                                                 |
 |      CCC   AA    SSS  TTTTT  EEEEE  PPPP        |
 |     C     A  A  S       T    E      P   P       |
 |     C     AAAA   SS     T    EEE    PPPP        |
 |     C     A  A     S    T    E      P           |
 |      CCC  A  A  SSS     T    EEEEE  P           |
 |                                                 |
 +-------------------------------------------------+
 |                                                 |
 | Welcome to Academic Release CASTEP version 16.1 |          
 | Ab Initio Total Energy Program                  |
 |                                                 |
 | Authors:                                        |
 | M. Segall, M. Probert, C. Pickard, P. Hasnip,   |
 | S. Clark, K. Refson, J. R. Yates, M. Payne      |
 |                                                 |
 | Contributors:                                   |
 | P. Lindan, P. Haynes, J. White, V. Milman,      |
 | N. Govind, M. Gibson, P. Tulip, V. Cocula,      |
 | B. Montanari, D. Quigley, M. Glover,            |
 | L. Bernasconi, A. Perlov, M. Plummer,           |
 | E. McNellis, J. Meyer, J. Gale, D. Jochym       |
 | J. Aarons, B. Walker, R. Gillen, D. Jones       |
 | T. Green, I. J. Bush, C. J. Armstrong,          |
 | E. J. Higgins, E. L. Brown, M. S. McFly         |
 |                                                 |
 | Copyright (c) 2000 - 2015                       |
 |                                                 |
 |     Distributed under the terms of an           |
 |     Agreement between the United Kingdom        |
 |     Car-Parrinello (UKCP) Consortium,           |
 |     Daresbury Laboratory and Accelrys, Inc.     |
 |                                                 |
 | Please cite                                     |
 |                                                 |
 |     "First principles methods using CASTEP"     |
 |                                                 |
 |         Zeitschrift fuer Kristallographie       |
 |           220(5-6) pp. 567-570 (2005)           |
 |                                                 |
 | S. J. Clark, M. D. Segall, C. J. Pickard,       |
 | P. J. Hasnip, M. J. Probert, K. Refson,         |
 | M. C. Payne                                     |
 |                                                 |
 |       in all publications arising from          |
 |              your use of CASTEP                 |
 |                                                 |
 +-------------------------------------------------+


 Compiled for darwin_x86_64_gfortran4.9 on Tue, 15 Dec 2015 16:29:18 +0000
 from code version b833c1ffcd7d+  Fri, 13 Jun 2014 17:24:31 +0100
 Compiler: GNU Fortran 4.9.1; Optimisation: intermediate
 MATHLIBS: default (LAPACK version 3.2.1)
 FFT Lib : default
 Fundamental constants values: CODATA 2010

 Run started: Wed, 27 Jan 2016 09:00:47 +0100

 ******************************* User Parameters *******************************
iprint                : 3           # verbosity control (I)
task                  : singlepoint # type of calculation (S)
calculatedensdiff     : T           # calculate density difference based on atoms (L)
writeformatteddensity : T           # formatted density on/off (L)
optstrategy           : speed       # optimization strategy (S)
xcfunctional          : LDA         # exchange-correlation functional (S)
basisprecision        : MEDIUM      # accuracy of basis set (S)
fixoccupancy          : T           # treat system as an insulator (L)
numdumpcycles         : 0           # frequency of wavefunction dumps (I)

 *******************************************************************************
  

 Pseudo atomic calculation performed for Si 3s2 3p2

 Converged in 16 iterations to a total energy of -102.0354 eV

Initialising basis set.

Standard grid dimensions:  12  12  12
Fine grid dimensions:      12  12  12

Plane wave load balancing: max    122 min    113 average    117
True cut-off energy of basis :   4.407
 Calculation not parallelised.

 ************************************ Title ************************************
 

 ***************************** General Parameters ******************************
  
 output verbosity                               : extreme (3)
 write checkpoint data to                       : Si2.check
 type of calculation                            : single point energy
 stress calculation                             : off
 density difference calculation                 : on
 electron localisation func (ELF) calculation   : off
 Hirshfeld analysis                             : off
 unlimited duration calculation
 timing information                             : on
 memory usage estimate                          : on
 write final potential to formatted file        : off
 write final density to formatted file          : on
 write BibTeX reference list                    : on
 write OTFG pseudopotential files               : on
 checkpoint writing                             : both castep_bin and check files
  
 output         length unit                     : A
 output           mass unit                     : amu
 output           time unit                     : ps
 output         charge unit                     : e
 output           spin unit                     : hbar/2
 output         energy unit                     : eV
 output          force unit                     : eV/A
 output       velocity unit                     : A/ps
 output       pressure unit                     : GPa
 output     inv_length unit                     : 1/A
 output      frequency unit                     : cm-1
 output force constant unit                     : eV/A**2
 output         volume unit                     : A**3
 output   IR intensity unit                     : (D/A)**2/amu
 output         dipole unit                     : D
 output         efield unit                     : eV/A/e
 output        entropy unit                     : J/mol/K
  
 wavefunctions paging                           : none
 random number generator seed                   : randomised (90047169)
 data distribution                              : optimal for this architecture
 optimization strategy                          : maximize speed(+++)

 *********************** Exchange-Correlation Parameters ***********************
  
 using functional                               : Local Density Approximation
 relativistic treatment                         : Koelling-Harmon
 DFT+D: Semi-empirical dispersion correction    : off

 ************************* Pseudopotential Parameters **************************
  
 pseudopotential representation                 : reciprocal space
 <beta|phi> representation                      : reciprocal space
 spin-orbit coupling                            : off

 **************************** Basis Set Parameters *****************************
  
 basis set accuracy                             : MEDIUM
 plane wave basis set cut-off                   :   120.0000   eV
 size of standard grid                          :     1.7500
 size of   fine   gmax                          :     9.8213   1/A
 finite basis set correction                    : none

 **************************** Electronic Parameters ****************************
  
 number of  electrons                           :  8.000    
 net charge of system                           :  0.000    
 treating system as non-spin-polarized
 number of bands                                :          4

 ********************* Electronic Minimization Parameters **********************
  
 Method: Treating system as non-metallic,
         and number of  SD  steps               :          1
         and number of  CG  steps               :          4
  
 total energy / atom convergence tol.           : 0.1000E-04   eV
 max force / atom convergence tol.              : ignored
 convergence tolerance window                   :          3   cycles
 max. number of SCF cycles                      :         30
 periodic dipole correction                     : NONE

 *********************** Population Analysis Parameters ************************
  
 Population analysis with cutoff                :  3.000       A

 *******************************************************************************
  

                           -------------------------------
                                      Unit Cell
                           -------------------------------
        Real Lattice(A)                      Reciprocal Lattice(1/A)
   2.6954645   2.6954645   0.0000000        1.1655107   1.1655107  -1.1655107
   2.6954645   0.0000000   2.6954645        1.1655107  -1.1655107   1.1655107
   0.0000000   2.6954645   2.6954645       -1.1655107   1.1655107   1.1655107

                       Lattice parameters(A)       Cell Angles
                    a =    3.811962          alpha =   60.000000
                    b =    3.811962          beta  =   60.000000
                    c =    3.811962          gamma =   60.000000

                       Current cell volume =   39.167950       A**3

                           -------------------------------
                                     Cell Contents
                           -------------------------------
                         Total number of ions in cell =    2
                      Total number of species in cell =    1
                        Max number of any one species =    2

            xxxxxxxxxxxxxxxxxxxxxxxxxxxxxxxxxxxxxxxxxxxxxxxxxxxxxxxxxxxx
            x  Element    Atom        Fractional coordinates of atoms  x
            x            Number           u          v          w      x
            x----------------------------------------------------------x
            x  Si           1         0.000000   0.000000   0.000000   x 
            x  Si           2         0.250000   0.250000   0.250000   x 
            xxxxxxxxxxxxxxxxxxxxxxxxxxxxxxxxxxxxxxxxxxxxxxxxxxxxxxxxxxxx


                         No user defined ionic velocities

                           -------------------------------
                                   Details of Species
                           -------------------------------

                               Mass of species in AMU
                                    Si   28.0855000

                          Electric Quadrupole Moment (Barn)
                                    Si    1.0000000 No Isotope Defined

                          Files used for pseudopotentials:
                                    Si Si_00.usp

                           -------------------------------
                              k-Points For BZ Sampling
                           -------------------------------
                       MP grid size for SCF calculation is  4  4  4
                            with an offset of   0.000  0.000  0.000
                       Number of kpoints used =            10

             +++++++++++++++++++++++++++++++++++++++++++++++++++++++
             +  Number       Fractional coordinates        Weight  +
             +-----------------------------------------------------+
             +     1  -0.375000  -0.125000  -0.375000   0.0937500  +
             +     2  -0.375000   0.375000   0.375000   0.0937500  +
             +     3  -0.125000  -0.375000  -0.125000   0.0937500  +
             +     4  -0.125000   0.375000   0.375000   0.0937500  +
             +     5   0.125000  -0.375000  -0.125000   0.1875000  +
             +     6   0.125000  -0.375000   0.125000   0.0937500  +
             +     7   0.125000  -0.125000  -0.125000   0.0937500  +
             +     8   0.125000   0.125000   0.125000   0.0312500  +
             +     9   0.375000  -0.375000   0.125000   0.1875000  +
             +    10   0.375000   0.375000   0.375000   0.0312500  +
             +++++++++++++++++++++++++++++++++++++++++++++++++++++++

                           -------------------------------
                               Symmetry and Constraints
                           -------------------------------

                      Maximum deviation from symmetry =  0.00000         ANG

                      Number of symmetry operations   =          48
                      Number of ionic constraints     =           3
                      Point group of crystal =    32: Oh, m-3m, 4/m -3 2/m
                      Space group of crystal =   227: Fd-3m, F 4d 2 3 -1d

                    1 rotation    
                 (   1.00000000000   0.00000000000   0.00000000000 )
                 (   0.00000000000   1.00000000000   0.00000000000 )
                 (   0.00000000000   0.00000000000   1.00000000000 )
                    1 displacement
                 (   0.00000000000   0.00000000000  -0.00000000000 )
                      symmetry related atoms: 
             Si:    1    2

                    2 rotation    
                 (   0.00000000000   0.00000000000   1.00000000000 )
                 (   0.00000000000   1.00000000000   0.00000000000 )
                 (  -1.00000000000   0.00000000000   0.00000000000 )
                    2 displacement
                 (   0.25000000000   0.25000000000   0.25000000000 )
                      symmetry related atoms: 
             Si:    2    1

                    3 rotation    
                 (  -1.00000000000   0.00000000000   0.00000000000 )
                 (   0.00000000000   1.00000000000   0.00000000000 )
                 (   0.00000000000   0.00000000000  -1.00000000000 )
                    3 displacement
                 (   0.00000000000   0.00000000000  -0.00000000000 )
                      symmetry related atoms: 
             Si:    1    2

                    4 rotation    
                 (   0.00000000000   0.00000000000  -1.00000000000 )
                 (   0.00000000000   1.00000000000   0.00000000000 )
                 (   1.00000000000   0.00000000000   0.00000000000 )
                    4 displacement
                 (   0.25000000000   0.25000000000   0.25000000000 )
                      symmetry related atoms: 
             Si:    2    1

                    5 rotation    
                 (  -1.00000000000   0.00000000000   0.00000000000 )
                 (   0.00000000000  -1.00000000000   0.00000000000 )
                 (   0.00000000000   0.00000000000   1.00000000000 )
                    5 displacement
                 (   0.00000000000   0.00000000000  -0.00000000000 )
                      symmetry related atoms: 
             Si:    1    2

                    6 rotation    
                 (   0.00000000000   0.00000000000   1.00000000000 )
                 (   0.00000000000  -1.00000000000   0.00000000000 )
                 (   1.00000000000   0.00000000000   0.00000000000 )
                    6 displacement
                 (   0.25000000000   0.25000000000   0.25000000000 )
                      symmetry related atoms: 
             Si:    2    1

                    7 rotation    
                 (   1.00000000000   0.00000000000   0.00000000000 )
                 (   0.00000000000  -1.00000000000   0.00000000000 )
                 (   0.00000000000   0.00000000000  -1.00000000000 )
                    7 displacement
                 (   0.00000000000   0.00000000000  -0.00000000000 )
                      symmetry related atoms: 
             Si:    1    2

                    8 rotation    
                 (   0.00000000000   0.00000000000  -1.00000000000 )
                 (   0.00000000000  -1.00000000000   0.00000000000 )
                 (  -1.00000000000   0.00000000000   0.00000000000 )
                    8 displacement
                 (   0.25000000000   0.25000000000   0.25000000000 )
                      symmetry related atoms: 
             Si:    2    1

                    9 rotation    
                 (   0.00000000000  -1.00000000000   0.00000000000 )
                 (   0.00000000000   0.00000000000   1.00000000000 )
                 (  -1.00000000000   0.00000000000   0.00000000000 )
                    9 displacement
                 (   0.00000000000   0.00000000000  -0.00000000000 )
                      symmetry related atoms: 
             Si:    1    2

                   10 rotation    
                 (  -1.00000000000   0.00000000000   0.00000000000 )
                 (   0.00000000000   0.00000000000   1.00000000000 )
                 (   0.00000000000   1.00000000000   0.00000000000 )
                   10 displacement
                 (   0.25000000000   0.25000000000   0.25000000000 )
                      symmetry related atoms: 
             Si:    2    1

                   11 rotation    
                 (   0.00000000000   1.00000000000   0.00000000000 )
                 (   0.00000000000   0.00000000000   1.00000000000 )
                 (   1.00000000000   0.00000000000   0.00000000000 )
                   11 displacement
                 (   0.00000000000   0.00000000000  -0.00000000000 )
                      symmetry related atoms: 
             Si:    1    2

                   12 rotation    
                 (   1.00000000000   0.00000000000   0.00000000000 )
                 (   0.00000000000   0.00000000000   1.00000000000 )
                 (   0.00000000000  -1.00000000000   0.00000000000 )
                   12 displacement
                 (   0.25000000000   0.25000000000   0.25000000000 )
                      symmetry related atoms: 
             Si:    2    1

                   13 rotation    
                 (   0.00000000000   1.00000000000   0.00000000000 )
                 (   0.00000000000   0.00000000000  -1.00000000000 )
                 (  -1.00000000000   0.00000000000   0.00000000000 )
                   13 displacement
                 (   0.00000000000   0.00000000000  -0.00000000000 )
                      symmetry related atoms: 
             Si:    1    2

                   14 rotation    
                 (  -1.00000000000   0.00000000000   0.00000000000 )
                 (   0.00000000000   0.00000000000  -1.00000000000 )
                 (   0.00000000000  -1.00000000000   0.00000000000 )
                   14 displacement
                 (   0.25000000000   0.25000000000   0.25000000000 )
                      symmetry related atoms: 
             Si:    2    1

                   15 rotation    
                 (   0.00000000000  -1.00000000000   0.00000000000 )
                 (   0.00000000000   0.00000000000  -1.00000000000 )
                 (   1.00000000000   0.00000000000   0.00000000000 )
                   15 displacement
                 (   0.00000000000   0.00000000000  -0.00000000000 )
                      symmetry related atoms: 
             Si:    1    2

                   16 rotation    
                 (   1.00000000000   0.00000000000   0.00000000000 )
                 (   0.00000000000   0.00000000000  -1.00000000000 )
                 (   0.00000000000   1.00000000000   0.00000000000 )
                   16 displacement
                 (   0.25000000000   0.25000000000   0.25000000000 )
                      symmetry related atoms: 
             Si:    2    1

                   17 rotation    
                 (   0.00000000000   0.00000000000  -1.00000000000 )
                 (  -1.00000000000   0.00000000000   0.00000000000 )
                 (   0.00000000000   1.00000000000   0.00000000000 )
                   17 displacement
                 (   0.00000000000   0.00000000000  -0.00000000000 )
                      symmetry related atoms: 
             Si:    1    2

                   18 rotation    
                 (   0.00000000000   1.00000000000   0.00000000000 )
                 (  -1.00000000000   0.00000000000   0.00000000000 )
                 (   0.00000000000   0.00000000000   1.00000000000 )
                   18 displacement
                 (   0.25000000000   0.25000000000   0.25000000000 )
                      symmetry related atoms: 
             Si:    2    1

                   19 rotation    
                 (   0.00000000000   0.00000000000   1.00000000000 )
                 (  -1.00000000000   0.00000000000   0.00000000000 )
                 (   0.00000000000  -1.00000000000   0.00000000000 )
                   19 displacement
                 (   0.00000000000   0.00000000000  -0.00000000000 )
                      symmetry related atoms: 
             Si:    1    2

                   20 rotation    
                 (   0.00000000000  -1.00000000000   0.00000000000 )
                 (  -1.00000000000   0.00000000000   0.00000000000 )
                 (   0.00000000000   0.00000000000  -1.00000000000 )
                   20 displacement
                 (   0.25000000000   0.25000000000   0.25000000000 )
                      symmetry related atoms: 
             Si:    2    1

                   21 rotation    
                 (   0.00000000000   0.00000000000   1.00000000000 )
                 (   1.00000000000   0.00000000000   0.00000000000 )
                 (   0.00000000000   1.00000000000   0.00000000000 )
                   21 displacement
                 (   0.00000000000   0.00000000000  -0.00000000000 )
                      symmetry related atoms: 
             Si:    1    2

                   22 rotation    
                 (   0.00000000000   1.00000000000   0.00000000000 )
                 (   1.00000000000   0.00000000000   0.00000000000 )
                 (   0.00000000000   0.00000000000  -1.00000000000 )
                   22 displacement
                 (   0.25000000000   0.25000000000   0.25000000000 )
                      symmetry related atoms: 
             Si:    2    1

                   23 rotation    
                 (   0.00000000000   0.00000000000  -1.00000000000 )
                 (   1.00000000000   0.00000000000   0.00000000000 )
                 (   0.00000000000  -1.00000000000   0.00000000000 )
                   23 displacement
                 (   0.00000000000   0.00000000000  -0.00000000000 )
                      symmetry related atoms: 
             Si:    1    2

                   24 rotation    
                 (   0.00000000000  -1.00000000000   0.00000000000 )
                 (   1.00000000000   0.00000000000   0.00000000000 )
                 (   0.00000000000   0.00000000000   1.00000000000 )
                   24 displacement
                 (   0.25000000000   0.25000000000   0.25000000000 )
                      symmetry related atoms: 
             Si:    2    1

                   25 rotation    
                 (  -1.00000000000   0.00000000000   0.00000000000 )
                 (   0.00000000000  -1.00000000000   0.00000000000 )
                 (   0.00000000000   0.00000000000  -1.00000000000 )
                   25 displacement
                 (   0.25000000000   0.25000000000   0.25000000000 )
                      symmetry related atoms: 
             Si:    2    1

                   26 rotation    
                 (   0.00000000000   0.00000000000  -1.00000000000 )
                 (   0.00000000000  -1.00000000000   0.00000000000 )
                 (   1.00000000000   0.00000000000   0.00000000000 )
                   26 displacement
                 (   0.00000000000   0.00000000000  -0.00000000000 )
                      symmetry related atoms: 
             Si:    1    2

                   27 rotation    
                 (   1.00000000000   0.00000000000   0.00000000000 )
                 (   0.00000000000  -1.00000000000   0.00000000000 )
                 (   0.00000000000   0.00000000000   1.00000000000 )
                   27 displacement
                 (   0.25000000000   0.25000000000   0.25000000000 )
                      symmetry related atoms: 
             Si:    2    1

                   28 rotation    
                 (   0.00000000000   0.00000000000   1.00000000000 )
                 (   0.00000000000  -1.00000000000   0.00000000000 )
                 (  -1.00000000000   0.00000000000   0.00000000000 )
                   28 displacement
                 (   0.00000000000   0.00000000000  -0.00000000000 )
                      symmetry related atoms: 
             Si:    1    2

                   29 rotation    
                 (   1.00000000000   0.00000000000   0.00000000000 )
                 (   0.00000000000   1.00000000000   0.00000000000 )
                 (   0.00000000000   0.00000000000  -1.00000000000 )
                   29 displacement
                 (   0.25000000000   0.25000000000   0.25000000000 )
                      symmetry related atoms: 
             Si:    2    1

                   30 rotation    
                 (   0.00000000000   0.00000000000  -1.00000000000 )
                 (   0.00000000000   1.00000000000   0.00000000000 )
                 (  -1.00000000000   0.00000000000   0.00000000000 )
                   30 displacement
                 (   0.00000000000   0.00000000000  -0.00000000000 )
                      symmetry related atoms: 
             Si:    1    2

                   31 rotation    
                 (  -1.00000000000   0.00000000000   0.00000000000 )
                 (   0.00000000000   1.00000000000   0.00000000000 )
                 (   0.00000000000   0.00000000000   1.00000000000 )
                   31 displacement
                 (   0.25000000000   0.25000000000   0.25000000000 )
                      symmetry related atoms: 
             Si:    2    1

                   32 rotation    
                 (   0.00000000000   0.00000000000   1.00000000000 )
                 (   0.00000000000   1.00000000000   0.00000000000 )
                 (   1.00000000000   0.00000000000   0.00000000000 )
                   32 displacement
                 (   0.00000000000   0.00000000000  -0.00000000000 )
                      symmetry related atoms: 
             Si:    1    2

                   33 rotation    
                 (   0.00000000000   1.00000000000   0.00000000000 )
                 (   0.00000000000   0.00000000000  -1.00000000000 )
                 (   1.00000000000   0.00000000000   0.00000000000 )
                   33 displacement
                 (   0.25000000000   0.25000000000   0.25000000000 )
                      symmetry related atoms: 
             Si:    2    1

                   34 rotation    
                 (   1.00000000000   0.00000000000   0.00000000000 )
                 (   0.00000000000   0.00000000000  -1.00000000000 )
                 (   0.00000000000  -1.00000000000   0.00000000000 )
                   34 displacement
                 (   0.00000000000   0.00000000000  -0.00000000000 )
                      symmetry related atoms: 
             Si:    1    2

                   35 rotation    
                 (   0.00000000000  -1.00000000000   0.00000000000 )
                 (   0.00000000000   0.00000000000  -1.00000000000 )
                 (  -1.00000000000   0.00000000000   0.00000000000 )
                   35 displacement
                 (   0.25000000000   0.25000000000   0.25000000000 )
                      symmetry related atoms: 
             Si:    2    1

                   36 rotation    
                 (  -1.00000000000   0.00000000000   0.00000000000 )
                 (   0.00000000000   0.00000000000  -1.00000000000 )
                 (   0.00000000000   1.00000000000   0.00000000000 )
                   36 displacement
                 (   0.00000000000   0.00000000000  -0.00000000000 )
                      symmetry related atoms: 
             Si:    1    2

                   37 rotation    
                 (   0.00000000000  -1.00000000000   0.00000000000 )
                 (   0.00000000000   0.00000000000   1.00000000000 )
                 (   1.00000000000   0.00000000000   0.00000000000 )
                   37 displacement
                 (   0.25000000000   0.25000000000   0.25000000000 )
                      symmetry related atoms: 
             Si:    2    1

                   38 rotation    
                 (   1.00000000000   0.00000000000   0.00000000000 )
                 (   0.00000000000   0.00000000000   1.00000000000 )
                 (   0.00000000000   1.00000000000   0.00000000000 )
                   38 displacement
                 (   0.00000000000   0.00000000000  -0.00000000000 )
                      symmetry related atoms: 
             Si:    1    2

                   39 rotation    
                 (   0.00000000000   1.00000000000   0.00000000000 )
                 (   0.00000000000   0.00000000000   1.00000000000 )
                 (  -1.00000000000   0.00000000000   0.00000000000 )
                   39 displacement
                 (   0.25000000000   0.25000000000   0.25000000000 )
                      symmetry related atoms: 
             Si:    2    1

                   40 rotation    
                 (  -1.00000000000   0.00000000000   0.00000000000 )
                 (   0.00000000000   0.00000000000   1.00000000000 )
                 (   0.00000000000  -1.00000000000   0.00000000000 )
                   40 displacement
                 (   0.00000000000   0.00000000000  -0.00000000000 )
                      symmetry related atoms: 
             Si:    1    2

                   41 rotation    
                 (   0.00000000000   0.00000000000   1.00000000000 )
                 (   1.00000000000   0.00000000000   0.00000000000 )
                 (   0.00000000000  -1.00000000000   0.00000000000 )
                   41 displacement
                 (   0.25000000000   0.25000000000   0.25000000000 )
                      symmetry related atoms: 
             Si:    2    1

                   42 rotation    
                 (   0.00000000000  -1.00000000000   0.00000000000 )
                 (   1.00000000000   0.00000000000   0.00000000000 )
                 (   0.00000000000   0.00000000000  -1.00000000000 )
                   42 displacement
                 (   0.00000000000   0.00000000000  -0.00000000000 )
                      symmetry related atoms: 
             Si:    1    2

                   43 rotation    
                 (   0.00000000000   0.00000000000  -1.00000000000 )
                 (   1.00000000000   0.00000000000   0.00000000000 )
                 (   0.00000000000   1.00000000000   0.00000000000 )
                   43 displacement
                 (   0.25000000000   0.25000000000   0.25000000000 )
                      symmetry related atoms: 
             Si:    2    1

                   44 rotation    
                 (   0.00000000000   1.00000000000   0.00000000000 )
                 (   1.00000000000   0.00000000000   0.00000000000 )
                 (   0.00000000000   0.00000000000   1.00000000000 )
                   44 displacement
                 (   0.00000000000   0.00000000000  -0.00000000000 )
                      symmetry related atoms: 
             Si:    1    2

                   45 rotation    
                 (   0.00000000000   0.00000000000  -1.00000000000 )
                 (  -1.00000000000   0.00000000000   0.00000000000 )
                 (   0.00000000000  -1.00000000000   0.00000000000 )
                   45 displacement
                 (   0.25000000000   0.25000000000   0.25000000000 )
                      symmetry related atoms: 
             Si:    2    1

                   46 rotation    
                 (   0.00000000000  -1.00000000000   0.00000000000 )
                 (  -1.00000000000   0.00000000000   0.00000000000 )
                 (   0.00000000000   0.00000000000   1.00000000000 )
                   46 displacement
                 (   0.00000000000   0.00000000000  -0.00000000000 )
                      symmetry related atoms: 
             Si:    1    2

                   47 rotation    
                 (   0.00000000000   0.00000000000   1.00000000000 )
                 (  -1.00000000000   0.00000000000   0.00000000000 )
                 (   0.00000000000   1.00000000000   0.00000000000 )
                   47 displacement
                 (   0.25000000000   0.25000000000   0.25000000000 )
                      symmetry related atoms: 
             Si:    2    1

                   48 rotation    
                 (   0.00000000000   1.00000000000   0.00000000000 )
                 (  -1.00000000000   0.00000000000   0.00000000000 )
                 (   0.00000000000   0.00000000000  -1.00000000000 )
                   48 displacement
                 (   0.00000000000   0.00000000000  -0.00000000000 )
                      symmetry related atoms: 
             Si:    1    2


                         Centre of mass is constrained

            xxxxxxxxxxxxxxxxxxxxxxxxxxxxxxxxxxxxxxxxxxxxxxxxxxxxxxxxx....
            x  Species  atom   co-ordinate  constraints.....         
            x--------------------------------------------------------....
            x Si           1       x        51196.7345      0.0000      0.0000
            x Si           1       y            0.0000  51196.7345      0.0000
            x Si           1       z            0.0000      0.0000  51196.7345
            x Si           2       x        51196.7345      0.0000      0.0000
            x Si           2       y            0.0000  51196.7345      0.0000
            x Si           2       z            0.0000      0.0000  51196.7345
            xxxxxxxxxxxxxxxxxxxxxxxxxxxxxxxxxxxxxxxxxxxxxxxxxxxxxxxxx....

                         Number of cell constraints= 5
                         Cell constraints are:  1 1 1 0 0 0

                         External pressure/stress (GPa)
                          0.00000   0.00000   0.00000
                                    0.00000   0.00000
                                              0.00000
  
+---------------- MEMORY AND SCRATCH DISK ESTIMATES PER PROCESS --------------+
|                                                     Memory          Disk    |
| Baseline code, static data and system overhead        0.0 MB         0.0 MB |
| BLAS internal memory storage                          0.0 MB         0.0 MB |
| Model and support data                                2.8 MB         0.0 MB |
| Electronic energy minimisation requirements           0.6 MB         0.0 MB |
| Force calculation requirements                        0.2 MB         0.0 MB |
|                                               ----------------------------- |
| Approx. total storage required per process            3.4 MB         0.0 MB |
|                                                                             |
| Requirements will fluctuate during execution and may exceed these estimates |
+-----------------------------------------------------------------------------+
electronic_minimisation: Initialising
Calculating Ewald energy for ionic configuration
              Ewald: real-space energy =      37.694000 eV
        Ewald: reciprocal-space energy =       3.453837 eV
         Ewald: (sum_charge)**2 Energy =     135.682804 eV
         Ewald: (sum_charge**2) Energy =     135.682804 eV
                          Ewald Energy =    -230.217771 eV
Calculating non-Coulombic energy for ionic configuration
Calculating density (no density mixing)
Symmetrising density
Calculating local potential
Calculating non-local weights
Applying Hamiltonian in reciprocal space to find H|wvfn>                        
Performing sub-space diagonalisation
Applying Hamiltonian in reciprocal space to find (H-ES)|wvfn>                   
 
Init
Exchange-correlation energy      =       -60.04288014901665349 eV
+Hartree energy                  =         0.08905312975207620 eV
+Local pseudopotential energy    =        11.13762829331467863 eV
----------------------------------
Potential energy (total)         =       -48.81619872594990284 eV
                                  
+Kinetic energy                  =       436.10346531391195413 eV
+Non-local energy                =        12.70141819022425445 eV
+Ewald energy (const)            =      -230.21777127234247473 eV
+non-Coulombic energy (const)    =        -1.00874254030012911 eV
----------------------------------
Total energy                     =       168.76217096554370301 eV
 
(XC correction to eigenvalue sum =        18.19772126839627191 eV)
(Hubbard U correction to eigenvalu         0.00000000000000000 eV)
 
------------------------------------------------------------------------ <-- SCF
SCF loop      Energy                           Energy gain       Timer   <-- SCF
                                               per atom          (sec)   <-- SCF
------------------------------------------------------------------------ <-- SCF
Initial   1.68762171E+002                                          0.23  <-- SCF
Starting SCF cycle     1 of up to    30
 Recalculating preconditioning , KE=   55.388991902827314     
 KE_thresh=   0.0000000000000000      eV                            
 ratio=   1.0000000000000000     
 Calculating the R matrix for the precon Sinv operator
 Recalculating preconditioning , KE=   55.263559833573943     
 KE_thresh=   0.0000000000000000      eV                            
 ratio=   1.0000000000000000     
 Calculating the R matrix for the precon Sinv operator
 Recalculating preconditioning , KE=   53.103733787488281     
 KE_thresh=   0.0000000000000000      eV                            
 ratio=   1.0000000000000000     
 Calculating the R matrix for the precon Sinv operator
 Recalculating preconditioning , KE=   55.483960274439006     
 KE_thresh=   0.0000000000000000      eV                            
 ratio=   1.0000000000000000     
 Calculating the R matrix for the precon Sinv operator
 Recalculating preconditioning , KE=   56.149412094252291     
 KE_thresh=   0.0000000000000000      eV                            
 ratio=   1.0000000000000000     
 Calculating the R matrix for the precon Sinv operator
 Recalculating preconditioning , KE=   55.830362084121766     
 KE_thresh=   0.0000000000000000      eV                            
 ratio=   1.0000000000000000     
 Calculating the R matrix for the precon Sinv operator
 Recalculating preconditioning , KE=   52.096589164505687     
 KE_thresh=   0.0000000000000000      eV                            
 ratio=   1.0000000000000000     
 Calculating the R matrix for the precon Sinv operator
 Recalculating preconditioning , KE=   50.588039474738856     
 KE_thresh=   0.0000000000000000      eV                            
 ratio=   1.0000000000000000     
 Calculating the R matrix for the precon Sinv operator
 Recalculating preconditioning , KE=   53.693509636005473     
 KE_thresh=   0.0000000000000000      eV                            
 ratio=   1.0000000000000000     
 Calculating the R matrix for the precon Sinv operator
 Recalculating preconditioning , KE=   53.266700258494595     
 KE_thresh=   0.0000000000000000      eV                            
 ratio=   1.0000000000000000     
 Calculating the R matrix for the precon Sinv operator
Starting self-consistent electronic minimisation step      1 of      5
Steepest descent step      1
Minimisation for step      1 is of type SD  
Constructing projected SD direction (preconditioned)
Derivative of energy wrt step direction =  -288.55567    eV
 
Prior to line minimisation
Exchange-correlation energy      =       -60.04288014901665349 eV
+Hartree energy                  =         0.08905312975207620 eV
+Local pseudopotential energy    =        11.13762829331467863 eV
----------------------------------
Potential energy (total)         =       -48.81619872594990284 eV
                                  
+Kinetic energy                  =       436.10346531391195413 eV
+Non-local energy                =        12.70141819022425445 eV
+Ewald energy (const)            =      -230.21777127234247473 eV
+non-Coulombic energy (const)    =        -1.00874254030012911 eV
----------------------------------
Total energy                     =       168.76217096554370301 eV
 
(XC correction to eigenvalue sum =        18.19772126839627191 eV)
(Hubbard U correction to eigenvalu         0.00000000000000000 eV)
 
Starting line minimisation...
Energy at start of line minimisation =   168.76217    eV
1st trial step =  1.5000000    
Calculating density (no density mixing)
Symmetrising density
Calculating local potential
Calculating KE and non-local eigenvalues to find total energy
 
1st trial energies
Exchange-correlation energy      =       -62.24122019247577953 eV
+Hartree energy                  =         6.03474567196670897 eV
+Local pseudopotential energy    =       -49.42110008239406937 eV
----------------------------------
Potential energy (total)         =      -105.62757460290308131 eV
                                  
+Kinetic energy                  =       220.00847715560954043 eV
+Non-local energy                =        39.42324861114120438 eV
+Ewald energy (const)            =      -230.21777127234247473 eV
+non-Coulombic energy (const)    =        -1.00874254030012911 eV
----------------------------------
Total energy                     =       -77.42236264879498719 eV
 
(XC correction to eigenvalue sum =        18.88765730029061274 eV)
(Hubbard U correction to eigenvalu         0.00000000000000000 eV)
 
----- Parabolic fit, E = a + bx + cx^2 -----
initial energy            =   0.16876217E+03
First trial step          =   0.15000000E+01
First trial energy        =  -0.77422363E+02
Fit parameters:         a =   0.16876217E+03
                        b =  -0.28855567E+03
                        c =   0.82955096E+02
Parabolic minimum at step =   0.17392281E+01
Parabolic minimum energy  =  -0.82169889E+02
--------------------------------------------
line_minimisation: Taking next trial step, step=   1.7392281
Calculating density (no density mixing)
Symmetrising density
Calculating local potential
Calculating KE and non-local eigenvalues to find total energy
 
2nd trial energies
Exchange-correlation energy      =       -62.25940824657575234 eV
+Hartree energy                  =         6.08994209640891704 eV
+Local pseudopotential energy    =       -50.25785418506747249 eV
----------------------------------
Potential energy (total)         =      -106.42732033523432733 eV
                                  
+Kinetic energy                  =       217.13687952218498367 eV
+Non-local energy                =        40.29049069027767160 eV
+Ewald energy (const)            =      -230.21777127234247473 eV
+non-Coulombic energy (const)    =        -1.00874254030012911 eV
----------------------------------
Total energy                     =       -80.22646393541427301 eV
 
(XC correction to eigenvalue sum =        18.89342073929252663 eV)
(Hubbard U correction to eigenvalu         0.00000000000000000 eV)
 
 Cubic energy fit, E = E_o + dE_dstep.x + ax^2 + bx^3
 dE_dstep               =  -288.55566680533451     
 a                      =   78.926684390860274     
 b                      =   2.6856079153266665     
 1st step               =   1.5000000000000000     
 2nd step               =   1.7392280872506187     
 initial energy         =   168.76217096554370     
 1st trial energy       =  -77.422362648794987     
 2nd trial energy       =  -80.226463935414273     
 Cubic minimum at step  =   1.6833653590914732     
 Cubic minimum energy   =  -80.515558209783961     
Trial wavefunction accepted, final energy =      -80.2264639eV
+------------------- WAVEFUNCTION LINE MINIMISATION --------------------+<- line
| Initial energy =  1.687622E+002 eV; initial dE/dstep = -2.886E+002 eV |<- line
|                                                                       |<- line
|            1st step    2nd step    3rd step    4th step    5th step   |<- line
+--------+--------------------------------------------------------------+<- line
| step   |  1.500E+00   1.739E+00* unnecessary unnecessary unnecessary  |<- line
| gain   |  2.462E+02   2.490E+02* unnecessary unnecessary unnecessary  |<- line
+--------+--------------------------------------------------------------+<- line
 * indicates the final, accepted state (should have the lowest energy)          
 
Updating gradient
Calculating non-local weights
Applying Hamiltonian in reciprocal space to find (H-ES)|wvfn>                   
Starting self-consistent electronic minimisation step      2 of      5
Conjugate gradient step      1
Minimisation for step      2 is of type CG  
Constructing projected SD direction (preconditioned)
Constructing CG search direction
CG all bands factors:  2.135584E+000   5.302113E+000   4.027797E-001
Derivative of energy wrt step direction =  -117.69814    eV
 
Prior to line minimisation
Exchange-correlation energy      =       -62.25940824657575234 eV
+Hartree energy                  =         6.08994209640891704 eV
+Local pseudopotential energy    =       -50.25785418506747249 eV
----------------------------------
Potential energy (total)         =      -106.42732033523432733 eV
                                  
+Kinetic energy                  =       217.13687952218501209 eV
+Non-local energy                =        40.29049069027767160 eV
+Ewald energy (const)            =      -230.21777127234247473 eV
+non-Coulombic energy (const)    =        -1.00874254030012911 eV
----------------------------------
Total energy                     =       -80.22646393541427301 eV
 
(XC correction to eigenvalue sum =        18.89342073929252663 eV)
(Hubbard U correction to eigenvalu         0.00000000000000000 eV)
 
Starting line minimisation...
Energy at start of line minimisation =  -80.226464    eV
1st trial step =  1.5000000    
Calculating density (no density mixing)
Symmetrising density
Calculating local potential
Calculating KE and non-local eigenvalues to find total energy
 
1st trial energies
Exchange-correlation energy      =       -63.49914216872301864 eV
+Hartree energy                  =         9.44762283949361503 eV
+Local pseudopotential energy    =       -64.30195321938542463 eV
----------------------------------
Potential energy (total)         =      -118.35347254861480337 eV
                                  
+Kinetic energy                  =       148.04935770828208774 eV
+Non-local energy                =        52.16344064703011441 eV
+Ewald energy (const)            =      -230.21777127234247473 eV
+non-Coulombic energy (const)    =        -1.00874254030012911 eV
----------------------------------
Total energy                     =      -149.36718800594522349 eV
 
(XC correction to eigenvalue sum =        19.28239971264481056 eV)
(Hubbard U correction to eigenvalu         0.00000000000000000 eV)
 
----- Parabolic fit, E = a + bx + cx^2 -----
initial energy            =  -0.80226464E+02
First trial step          =   0.15000000E+01
First trial energy        =  -0.14936719E+03
Fit parameters:         a =  -0.80226464E+02
                        b =  -0.11769814E+03
                        c =   0.47736216E+02
Parabolic minimum at step =   0.12327971E+01
Parabolic minimum energy  =  -0.15277543E+03
--------------------------------------------
line_minimisation: Taking next trial step, step=   1.2327971
Calculating density (no density mixing)
Symmetrising density
Calculating local potential
Calculating KE and non-local eigenvalues to find total energy
 
2nd trial energies
Exchange-correlation energy      =       -63.54360589090004652 eV
+Hartree energy                  =         9.55544815469487574 eV
+Local pseudopotential energy    =       -64.68350577836412185 eV
----------------------------------
Potential energy (total)         =      -118.67166351456933171 eV
                                  
+Kinetic energy                  =       146.31570020802251975 eV
+Non-local energy                =        52.01442377905480896 eV
+Ewald energy (const)            =      -230.21777127234247473 eV
+non-Coulombic energy (const)    =        -1.00874254030012911 eV
----------------------------------
Total energy                     =      -151.56805334013463948 eV
 
(XC correction to eigenvalue sum =        19.29633410197685706 eV)
(Hubbard U correction to eigenvalu         0.00000000000000000 eV)
 
 Cubic energy fit, E = E_o + dE_dstep.x + ax^2 + bx^3
 dE_dstep               =  -117.69814011905096     
 a                      =   52.195952028010282     
 b                      =  -2.9731573199933710     
 1st step               =   1.5000000000000000     
 2nd step               =   1.2327971282919929     
 initial energy         =  -80.226463935414273     
 1st trial energy       =  -149.36718800594522     
 2nd trial energy       =  -151.56805334013464     
 Cubic minimum at step  =   1.2639679641424513     
 Cubic minimum energy   =  -151.60790408525929     
Trial wavefunction accepted, final energy =     -151.5680533eV
+------------------- WAVEFUNCTION LINE MINIMISATION --------------------+<- line
| Initial energy = -8.022646E+001 eV; initial dE/dstep = -1.177E+002 eV |<- line
|                                                                       |<- line
|            1st step    2nd step    3rd step    4th step    5th step   |<- line
+--------+--------------------------------------------------------------+<- line
| step   |  1.500E+00   1.233E+00* unnecessary unnecessary unnecessary  |<- line
| gain   |  6.914E+01   7.134E+01* unnecessary unnecessary unnecessary  |<- line
+--------+--------------------------------------------------------------+<- line
 * indicates the final, accepted state (should have the lowest energy)          
 
Updating gradient
Calculating non-local weights
Applying Hamiltonian in reciprocal space to find (H-ES)|wvfn>                   
Starting self-consistent electronic minimisation step      3 of      5
Conjugate gradient step      2
Minimisation for step      3 is of type CG  
Constructing projected SD direction (preconditioned)
Constructing CG search direction
CG all bands factors:  1.090609E+000   2.135584E+000   5.106844E-001
Derivative of energy wrt step direction =  -58.848359    eV
 
Prior to line minimisation
Exchange-correlation energy      =       -63.54360589090004652 eV
+Hartree energy                  =         9.55544815469487574 eV
+Local pseudopotential energy    =       -64.68350577836412185 eV
----------------------------------
Potential energy (total)         =      -118.67166351456933171 eV
                                  
+Kinetic energy                  =       146.31570020802254817 eV
+Non-local energy                =        52.01442377905480896 eV
+Ewald energy (const)            =      -230.21777127234247473 eV
+non-Coulombic energy (const)    =        -1.00874254030012911 eV
----------------------------------
Total energy                     =      -151.56805334013461106 eV
 
(XC correction to eigenvalue sum =        19.29633410197685706 eV)
(Hubbard U correction to eigenvalu         0.00000000000000000 eV)
 
Starting line minimisation...
Energy at start of line minimisation =  -151.56805    eV
1st trial step =  1.5000000    
Calculating density (no density mixing)
Symmetrising density
Calculating local potential
Calculating KE and non-local eigenvalues to find total energy
 
1st trial energies
Exchange-correlation energy      =       -63.98232004569216258 eV
+Hartree energy                  =        10.68830683260674341 eV
+Local pseudopotential energy    =       -66.50903746295642804 eV
----------------------------------
Potential energy (total)         =      -119.80305067604186320 eV
                                  
+Kinetic energy                  =       121.54414353988867958 eV
+Non-local energy                =        54.00628162837093527 eV
+Ewald energy (const)            =      -230.21777127234247473 eV
+non-Coulombic energy (const)    =        -1.00874254030012911 eV
----------------------------------
Total energy                     =      -175.47913932042487772 eV
 
(XC correction to eigenvalue sum =        19.43396700263985721 eV)
(Hubbard U correction to eigenvalu         0.00000000000000000 eV)
 
----- Parabolic fit, E = a + bx + cx^2 -----
initial energy            =  -0.15156805E+03
First trial step          =   0.15000000E+01
First trial energy        =  -0.17547914E+03
Fit parameters:         a =  -0.15156805E+03
                        b =  -0.58848359E+02
                        c =   0.28605090E+02
Parabolic minimum at step =   0.10286344E+01
Parabolic minimum energy  =  -0.18183478E+03
--------------------------------------------
line_minimisation: Taking next trial step, step=   1.0286344
Calculating density (no density mixing)
Symmetrising density
Calculating local potential
Calculating KE and non-local eigenvalues to find total energy
 
2nd trial energies
Exchange-correlation energy      =       -64.17362176519510797 eV
+Hartree energy                  =        11.20563650315581228 eV
+Local pseudopotential energy    =       -68.59323274891185918 eV
----------------------------------
Potential energy (total)         =      -121.56121801095112289 eV
                                  
+Kinetic energy                  =       116.74883760644179631 eV
+Non-local energy                =        55.19291827366931358 eV
+Ewald energy (const)            =      -230.21777127234247473 eV
+non-Coulombic energy (const)    =        -1.00874254030012911 eV
----------------------------------
Total energy                     =      -180.84597594348264238 eV
 
(XC correction to eigenvalue sum =        19.49387499904574739 eV)
(Hubbard U correction to eigenvalu         0.00000000000000000 eV)
 
 Cubic energy fit, E = E_o + dE_dstep.x + ax^2 + bx^3
 dE_dstep               =  -58.848358654165843     
 a                      =   31.578945698158378     
 b                      =  -1.9825706133030716     
 1st step               =   1.5000000000000000     
 2nd step               =   1.0286343988160900     
 initial energy         =  -151.56805334013461     
 1st trial energy       =  -175.47913932042488     
 2nd trial energy       =  -180.84597594348264     
 Cubic minimum at step  =   1.0320760708366334     
 Cubic minimum energy   =  -180.84627736919541     
Trial wavefunction accepted, final energy =     -180.8459759eV
+------------------- WAVEFUNCTION LINE MINIMISATION --------------------+<- line
| Initial energy = -1.515681E+002 eV; initial dE/dstep = -5.885E+001 eV |<- line
|                                                                       |<- line
|            1st step    2nd step    3rd step    4th step    5th step   |<- line
+--------+--------------------------------------------------------------+<- line
| step   |  1.500E+00   1.029E+00* unnecessary unnecessary unnecessary  |<- line
| gain   |  2.391E+01   2.928E+01* unnecessary unnecessary unnecessary  |<- line
+--------+--------------------------------------------------------------+<- line
 * indicates the final, accepted state (should have the lowest energy)          
 
Updating gradient
Calculating non-local weights
Applying Hamiltonian in reciprocal space to find (H-ES)|wvfn>                   
Starting self-consistent electronic minimisation step      4 of      5
Conjugate gradient step      3
Minimisation for step      4 is of type CG  
Constructing projected SD direction (preconditioned)
Constructing CG search direction
CG all bands factors:  6.022570E-001   1.090609E+000   5.522207E-001
Derivative of energy wrt step direction =  -31.804419    eV
 
Prior to line minimisation
Exchange-correlation energy      =       -64.17362176519510797 eV
+Hartree energy                  =        11.20563650315581228 eV
+Local pseudopotential energy    =       -68.59323274891185918 eV
----------------------------------
Potential energy (total)         =      -121.56121801095112289 eV
                                  
+Kinetic energy                  =       116.74883760644182473 eV
+Non-local energy                =        55.19291827366931358 eV
+Ewald energy (const)            =      -230.21777127234247473 eV
+non-Coulombic energy (const)    =        -1.00874254030012911 eV
----------------------------------
Total energy                     =      -180.84597594348258554 eV
 
(XC correction to eigenvalue sum =        19.49387499904574739 eV)
(Hubbard U correction to eigenvalu         0.00000000000000000 eV)
 
Starting line minimisation...
Energy at start of line minimisation =  -180.84598    eV
1st trial step =  1.5000000    
Calculating density (no density mixing)
Symmetrising density
Calculating local potential
Calculating KE and non-local eigenvalues to find total energy
 
1st trial energies
Exchange-correlation energy      =       -64.10916885506465235 eV
+Hartree energy                  =        10.95601788473362426 eV
+Local pseudopotential energy    =       -65.81145075063373895 eV
----------------------------------
Potential energy (total)         =      -118.96460172096473684 eV
                                  
+Kinetic energy                  =       104.97687124712984996 eV
+Non-local energy                =        54.29919863465271135 eV
+Ewald energy (const)            =      -230.21777127234247473 eV
+non-Coulombic energy (const)    =        -1.00874254030012911 eV
----------------------------------
Total energy                     =      -190.91504565182481201 eV
 
(XC correction to eigenvalue sum =        19.47373115968634849 eV)
(Hubbard U correction to eigenvalu         0.00000000000000000 eV)
 
----- Parabolic fit, E = a + bx + cx^2 -----
initial energy            =  -0.18084598E+03
First trial step          =   0.15000000E+01
First trial energy        =  -0.19091505E+03
Fit parameters:         a =  -0.18084598E+03
                        b =  -0.31804419E+02
                        c =   0.16727804E+02
Parabolic minimum at step =   0.95064538E+00
Parabolic minimum energy  =  -0.19596334E+03
--------------------------------------------
line_minimisation: Taking next trial step, step=   0.9506454
Calculating density (no density mixing)
Symmetrising density
Calculating local potential
Calculating KE and non-local eigenvalues to find total energy
 
2nd trial energies
Exchange-correlation energy      =       -64.33627929948998769 eV
+Hartree energy                  =        11.58198699082249838 eV
+Local pseudopotential energy    =       -68.34190753830759490 eV
----------------------------------
Potential energy (total)         =      -121.09619984697511086 eV
                                  
+Kinetic energy                  =       101.02537048392656516 eV
+Non-local energy                =        55.72594198311062996 eV
+Ewald energy (const)            =      -230.21777127234247473 eV
+non-Coulombic energy (const)    =        -1.00874254030012911 eV
----------------------------------
Total energy                     =      -195.57140119258053801 eV
 
(XC correction to eigenvalue sum =        19.54490053776861203 eV)
(Hubbard U correction to eigenvalu         0.00000000000000000 eV)
 
 Cubic energy fit, E = E_o + dE_dstep.x + ax^2 + bx^3
 dE_dstep               =  -31.804418687884201     
 a                      =   17.911982416253394     
 b                      = -0.78945247795142193     
 1st step               =   1.5000000000000000     
 2nd step               =  0.95064538236915064     
 initial energy         =  -180.84597594348259     
 1st trial energy       =  -190.91504565182481     
 2nd trial energy       =  -195.57140119258054     
 Cubic minimum at step  =  0.94709854640508340     
 Cubic minimum energy   =  -195.57159827301118     
Trial wavefunction accepted, final energy =     -195.5714012eV
+------------------- WAVEFUNCTION LINE MINIMISATION --------------------+<- line
| Initial energy = -1.808460E+002 eV; initial dE/dstep = -3.180E+001 eV |<- line
|                                                                       |<- line
|            1st step    2nd step    3rd step    4th step    5th step   |<- line
+--------+--------------------------------------------------------------+<- line
| step   |  1.500E+00   9.506E-01* unnecessary unnecessary unnecessary  |<- line
| gain   |  1.007E+01   1.473E+01* unnecessary unnecessary unnecessary  |<- line
+--------+--------------------------------------------------------------+<- line
 * indicates the final, accepted state (should have the lowest energy)          
 
Updating gradient
Calculating non-local weights
Applying Hamiltonian in reciprocal space to find (H-ES)|wvfn>                   
Starting self-consistent electronic minimisation step      5 of      5
Conjugate gradient step      4
Minimisation for step      5 is of type CG  
Constructing projected SD direction (preconditioned)
Constructing CG search direction
CG all bands factors:  3.480566E-001   6.022570E-001   5.779204E-001
Derivative of energy wrt step direction =  -18.434467    eV
 
Prior to line minimisation
Exchange-correlation energy      =       -64.33627929948998769 eV
+Hartree energy                  =        11.58198699082249838 eV
+Local pseudopotential energy    =       -68.34190753830759490 eV
----------------------------------
Potential energy (total)         =      -121.09619984697511086 eV
                                  
+Kinetic energy                  =       101.02537048392653674 eV
+Non-local energy                =        55.72594198311062996 eV
+Ewald energy (const)            =      -230.21777127234247473 eV
+non-Coulombic energy (const)    =        -1.00874254030012911 eV
----------------------------------
Total energy                     =      -195.57140119258056643 eV
 
(XC correction to eigenvalue sum =        19.54490053776861203 eV)
(Hubbard U correction to eigenvalu         0.00000000000000000 eV)
 
Starting line minimisation...
Energy at start of line minimisation =  -195.57140    eV
1st trial step =  1.5000000    
Calculating density (no density mixing)
Symmetrising density
Calculating local potential
Calculating KE and non-local eigenvalues to find total energy
 
1st trial energies
Exchange-correlation energy      =       -64.34813228424002318 eV
+Hartree energy                  =        11.60650000239395574 eV
+Local pseudopotential energy    =       -67.92518965076762072 eV
----------------------------------
Potential energy (total)         =      -120.66682193261368639 eV
                                  
+Kinetic energy                  =        96.22189956632188057 eV
+Non-local energy                =        56.08193521411979532 eV
+Ewald energy (const)            =      -230.21777127234247473 eV
+non-Coulombic energy (const)    =        -1.00874254030012911 eV
----------------------------------
Total energy                     =      -199.58950096481464698 eV
 
(XC correction to eigenvalue sum =        19.54866925244050790 eV)
(Hubbard U correction to eigenvalu         0.00000000000000000 eV)
 
----- Parabolic fit, E = a + bx + cx^2 -----
initial energy            =  -0.19557140E+03
First trial step          =   0.15000000E+01
First trial energy        =  -0.19958950E+03
Fit parameters:         a =  -0.19557140E+03
                        b =  -0.18434467E+02
                        c =   0.10503823E+02
Parabolic minimum at step =   0.87751230E+00
Parabolic minimum energy  =  -0.20365964E+03
--------------------------------------------
line_minimisation: Taking next trial step, step=   0.8775123
Calculating density (no density mixing)
Symmetrising density
Calculating local potential
Calculating KE and non-local eigenvalues to find total energy
 
2nd trial energies
Exchange-correlation energy      =       -64.49052758285893105 eV
+Hartree energy                  =        11.98106505345528738 eV
+Local pseudopotential energy    =       -69.18348448528971062 eV
----------------------------------
Potential energy (total)         =      -121.69294701469326014 eV
                                  
+Kinetic energy                  =        92.67589309703491551 eV
+Non-local energy                =        56.75193774527662782 eV
+Ewald energy (const)            =      -230.21777127234247473 eV
+non-Coulombic energy (const)    =        -1.00874254030012911 eV
----------------------------------
Total energy                     =      -203.49162998502436039 eV
 
(XC correction to eigenvalue sum =        19.59327571531068912 eV)
(Hubbard U correction to eigenvalu         0.00000000000000000 eV)
 
 Cubic energy fit, E = E_o + dE_dstep.x + ax^2 + bx^3
 dE_dstep               =  -18.434467352686777     
 a                      =   11.029575768601346     
 b                      = -0.35050199186872927     
 1st step               =   1.5000000000000000     
 2nd step               =  0.87751229896920568     
 initial energy         =  -195.57140119258057     
 1st trial energy       =  -199.58950096481465     
 2nd trial energy       =  -203.49162998502436     
 Cubic minimum at step  =  0.87192264837780264     
 Cubic minimum energy   =  -203.49194588834064     
Trial wavefunction accepted, final energy =     -203.4916300eV
+------------------- WAVEFUNCTION LINE MINIMISATION --------------------+<- line
| Initial energy = -1.955714E+002 eV; initial dE/dstep = -1.843E+001 eV |<- line
|                                                                       |<- line
|            1st step    2nd step    3rd step    4th step    5th step   |<- line
+--------+--------------------------------------------------------------+<- line
| step   |  1.500E+00   8.775E-01* unnecessary unnecessary unnecessary  |<- line
| gain   |  4.018E+00   7.920E+00* unnecessary unnecessary unnecessary  |<- line
+--------+--------------------------------------------------------------+<- line
 * indicates the final, accepted state (should have the lowest energy)          
 
Updating gradient
Calculating non-local weights
Applying Hamiltonian in reciprocal space to find (H-ES)|wvfn>                   
 no. bands in each block=           4
 
End of SCF cycle energies
Exchange-correlation energy      =       -64.49052758285893105 eV
+Hartree energy                  =        11.98106505345528738 eV
+Local pseudopotential energy    =       -69.18348448528971062 eV
----------------------------------
Potential energy (total)         =      -121.69294701469326014 eV
                                  
+Kinetic energy                  =        92.67589309703491551 eV
+Non-local energy                =        56.75193774527662782 eV
+Ewald energy (const)            =      -230.21777127234247473 eV
+non-Coulombic energy (const)    =        -1.00874254030012911 eV
----------------------------------
Total energy                     =      -203.49162998502436039 eV
 
(XC correction to eigenvalue sum =        19.59327571531068912 eV)
(Hubbard U correction to eigenvalu         0.00000000000000000 eV)
 
      1  -2.03491630E+002                    1.86126900E+002       0.35  <-- SCF
Starting SCF cycle     2 of up to    30
 Recalculating preconditioning , KE=   12.239787556812203     
 KE_thresh=   55.388991902827314      eV                            
 ratio=   3.5253229801361945     
 Calculating the R matrix for the precon Sinv operator
 Recalculating preconditioning , KE=   10.637330324211208     
 KE_thresh=   55.263559833573943      eV                            
 ratio=   4.1952471296102125     
 Calculating the R matrix for the precon Sinv operator
 Recalculating preconditioning , KE=   12.264794063897487     
 KE_thresh=   53.103733787488281      eV                            
 ratio=   3.3297697059426259     
 Calculating the R matrix for the precon Sinv operator
 Recalculating preconditioning , KE=   11.128409840693431     
 KE_thresh=   55.483960274439006      eV                            
 ratio=   3.9857941133287467     
 Calculating the R matrix for the precon Sinv operator
 Recalculating preconditioning , KE=   11.027632258471744     
 KE_thresh=   56.149412094252291      eV                            
 ratio=   4.0917015346713885     
 Calculating the R matrix for the precon Sinv operator
 Recalculating preconditioning , KE=   11.703710151442344     
 KE_thresh=   55.830362084121766      eV                            
 ratio=   3.7703131196598649     
 Calculating the R matrix for the precon Sinv operator
 Recalculating preconditioning , KE=   12.574318854773349     
 KE_thresh=   52.096589164505687      eV                            
 ratio=   3.1430943310881014     
 Calculating the R matrix for the precon Sinv operator
 Recalculating preconditioning , KE=   14.522536709096123     
 KE_thresh=   50.588039474738856      eV                            
 ratio=   2.4834161887883726     
 Calculating the R matrix for the precon Sinv operator
 Recalculating preconditioning , KE=   10.993237028719108     
 KE_thresh=   53.693509636005473      eV                            
 ratio=   3.8842310500296424     
 Calculating the R matrix for the precon Sinv operator
 Recalculating preconditioning , KE=   12.410767580408370     
 KE_thresh=   53.266700258494595      eV                            
 ratio=   3.2919746835466785     
 Calculating the R matrix for the precon Sinv operator
Starting self-consistent electronic minimisation step      1 of      5
Steepest descent step      1
Minimisation for step      1 is of type SD  
Constructing projected SD direction (preconditioned)
Derivative of energy wrt step direction =  -3.5168953    eV
 
Prior to line minimisation
Exchange-correlation energy      =       -64.49052758285893105 eV
+Hartree energy                  =        11.98106505345528738 eV
+Local pseudopotential energy    =       -69.18348448528971062 eV
----------------------------------
Potential energy (total)         =      -121.69294701469326014 eV
                                  
+Kinetic energy                  =        92.67589309703491551 eV
+Non-local energy                =        56.75193774527662782 eV
+Ewald energy (const)            =      -230.21777127234247473 eV
+non-Coulombic energy (const)    =        -1.00874254030012911 eV
----------------------------------
Total energy                     =      -203.49162998502436039 eV
 
(XC correction to eigenvalue sum =        19.59327571531068912 eV)
(Hubbard U correction to eigenvalu         0.00000000000000000 eV)
 
Starting line minimisation...
Energy at start of line minimisation =  -203.49163    eV
1st trial step =  1.5000000    
Calculating density (no density mixing)
Symmetrising density
Calculating local potential
Calculating KE and non-local eigenvalues to find total energy
 
1st trial energies
Exchange-correlation energy      =       -64.69598487271807130 eV
+Hartree energy                  =        12.51204214000478743 eV
+Local pseudopotential energy    =       -70.46865197315075591 eV
----------------------------------
Potential energy (total)         =      -122.65259470586399004 eV
                                  
+Kinetic energy                  =        88.30700778950574659 eV
+Non-local energy                =        57.54880452864568952 eV
+Ewald energy (const)            =      -230.21777127234247473 eV
+non-Coulombic energy (const)    =        -1.00874254030012911 eV
----------------------------------
Total energy                     =      -208.02329620035516200 eV
 
(XC correction to eigenvalue sum =        19.65761959182797014 eV)
(Hubbard U correction to eigenvalu         0.00000000000000000 eV)
 
----- Parabolic fit, E = a + bx + cx^2 -----
initial energy            =  -0.20349163E+03
First trial step          =   0.15000000E+01
First trial energy        =  -0.20802330E+03
Fit parameters:         a =  -0.20349163E+03
                        b =  -0.35168953E+01
                        c =   0.33052299E+00
Parabolic minimum at step =   0.53201977E+01
Parabolic minimum energy  =  -0.21284692E+03
--------------------------------------------
line_minimisation: Taking next trial step, step=   5.3201977
Calculating density (no density mixing)
Symmetrising density
Calculating local potential
Calculating KE and non-local eigenvalues to find total energy
 
2nd trial energies
Exchange-correlation energy      =       -64.67295417086333487 eV
+Hartree energy                  =        12.40393238707352630 eV
+Local pseudopotential energy    =       -69.21551237448105098 eV
----------------------------------
Potential energy (total)         =      -121.48453415827086133 eV
                                  
+Kinetic energy                  =        83.07550369482298436 eV
+Non-local energy                =        57.59549049917823993 eV
+Ewald energy (const)            =      -230.21777127234247473 eV
+non-Coulombic energy (const)    =        -1.00874254030012911 eV
----------------------------------
Total energy                     =      -212.04005377691225931 eV
 
(XC correction to eigenvalue sum =        19.65037456667877080 eV)
(Hubbard U correction to eigenvalu         0.00000000000000000 eV)
 
 Cubic energy fit, E = E_o + dE_dstep.x + ax^2 + bx^3
 dE_dstep               =  -3.5168952945516727     
 a                      =  0.31932987539056473     
 b                      =   7.4620761090128671E-003
 1st step               =   1.5000000000000000     
 2nd step               =   5.3201976953196768     
 initial energy         =  -203.49162998502436     
 1st trial energy       =  -208.02329620035516     
 2nd trial energy       =  -212.04005377691226     
 Cubic minimum at step  =   4.7243430133698361     
 Cubic minimum energy   =  -212.19255758739857     
Trial wavefunction accepted, final energy =     -212.0400538eV
+------------------- WAVEFUNCTION LINE MINIMISATION --------------------+<- line
| Initial energy = -2.034916E+002 eV; initial dE/dstep = -3.517E+000 eV |<- line
|                                                                       |<- line
|            1st step    2nd step    3rd step    4th step    5th step   |<- line
+--------+--------------------------------------------------------------+<- line
| step   |  1.500E+00   5.320E+00* unnecessary unnecessary unnecessary  |<- line
| gain   |  4.532E+00   8.548E+00* unnecessary unnecessary unnecessary  |<- line
+--------+--------------------------------------------------------------+<- line
 * indicates the final, accepted state (should have the lowest energy)          
 
Updating gradient
Calculating non-local weights
Applying Hamiltonian in reciprocal space to find (H-ES)|wvfn>                   
Starting self-consistent electronic minimisation step      2 of      5
Conjugate gradient step      1
Minimisation for step      2 is of type CG  
Constructing projected SD direction (preconditioned)
Constructing CG search direction
CG all bands factors:  2.221485E-002   6.462176E-002   3.437673E-001
Derivative of energy wrt step direction =  -1.1000163    eV
 
Prior to line minimisation
Exchange-correlation energy      =       -64.67295417086333487 eV
+Hartree energy                  =        12.40393238707352630 eV
+Local pseudopotential energy    =       -69.21551237448105098 eV
----------------------------------
Potential energy (total)         =      -121.48453415827086133 eV
                                  
+Kinetic energy                  =        83.07550369482298436 eV
+Non-local energy                =        57.59549049917823993 eV
+Ewald energy (const)            =      -230.21777127234247473 eV
+non-Coulombic energy (const)    =        -1.00874254030012911 eV
----------------------------------
Total energy                     =      -212.04005377691225931 eV
 
(XC correction to eigenvalue sum =        19.65037456667877080 eV)
(Hubbard U correction to eigenvalu         0.00000000000000000 eV)
 
Starting line minimisation...
Energy at start of line minimisation =  -212.04005    eV
1st trial step =  1.5000000    
Calculating density (no density mixing)
Symmetrising density
Calculating local potential
Calculating KE and non-local eigenvalues to find total energy
 
1st trial energies
Exchange-correlation energy      =       -64.91874632012368806 eV
+Hartree energy                  =        13.04379328753222467 eV
+Local pseudopotential energy    =       -70.97779479972093952 eV
----------------------------------
Potential energy (total)         =      -122.85274783231238871 eV
                                  
+Kinetic energy                  =        82.47931912733447746 eV
+Non-local energy                =        58.16965022018928266 eV
+Ewald energy (const)            =      -230.21777127234247473 eV
+non-Coulombic energy (const)    =        -1.00874254030012911 eV
----------------------------------
Total energy                     =      -213.43029229743123665 eV
 
(XC correction to eigenvalue sum =        19.72741448606690540 eV)
(Hubbard U correction to eigenvalu         0.00000000000000000 eV)
 
----- Parabolic fit, E = a + bx + cx^2 -----
initial energy            =  -0.21204005E+03
First trial step          =   0.15000000E+01
First trial energy        =  -0.21343029E+03
Fit parameters:         a =  -0.21204005E+03
                        b =  -0.11000163E+01
                        c =   0.11546039E+00
Parabolic minimum at step =   0.47636090E+01
Parabolic minimum energy  =  -0.21466008E+03
--------------------------------------------
line_minimisation: Taking next trial step, step=   4.7636090
Calculating density (no density mixing)
Symmetrising density
Calculating local potential
Calculating KE and non-local eigenvalues to find total energy
 
2nd trial energies
Exchange-correlation energy      =       -65.30557217264197334 eV
+Hartree energy                  =        14.05315503926803267 eV
+Local pseudopotential energy    =       -73.77898793181540782 eV
----------------------------------
Potential energy (total)         =      -125.03140506518921882 eV
                                  
+Kinetic energy                  =        82.69681683430832209 eV
+Non-local energy                =        59.02132459896897387 eV
+Ewald energy (const)            =      -230.21777127234247473 eV
+non-Coulombic energy (const)    =        -1.00874254030012911 eV
----------------------------------
Total energy                     =      -214.53977744455457355 eV
 
(XC correction to eigenvalue sum =        19.84873300094405479 eV)
(Hubbard U correction to eigenvalu         0.00000000000000000 eV)
 
 Cubic energy fit, E = E_o + dE_dstep.x + ax^2 + bx^3
 dE_dstep               =  -1.1000162592395153     
 a                      =  0.11302377311109679     
 b                      =   1.6244085452777474E-003
 1st step               =   1.5000000000000000     
 2nd step               =   4.7636089659176264     
 initial energy         =  -212.04005377691226     
 1st trial energy       =  -213.43029229743124     
 2nd trial energy       =  -214.53977744455457     
 Cubic minimum at step  =   4.4411002719796251     
 Cubic minimum energy   =  -214.55383882243342     
Trial wavefunction accepted, final energy =     -214.5397774eV
+------------------- WAVEFUNCTION LINE MINIMISATION --------------------+<- line
| Initial energy = -2.120401E+002 eV; initial dE/dstep = -1.100E+000 eV |<- line
|                                                                       |<- line
|            1st step    2nd step    3rd step    4th step    5th step   |<- line
+--------+--------------------------------------------------------------+<- line
| step   |  1.500E+00   4.764E+00* unnecessary unnecessary unnecessary  |<- line
| gain   |  1.390E+00   2.500E+00* unnecessary unnecessary unnecessary  |<- line
+--------+--------------------------------------------------------------+<- line
 * indicates the final, accepted state (should have the lowest energy)          
 
Updating gradient
Calculating non-local weights
Applying Hamiltonian in reciprocal space to find (H-ES)|wvfn>                   
Starting self-consistent electronic minimisation step      3 of      5
Conjugate gradient step      2
Minimisation for step      3 is of type CG  
Constructing projected SD direction (preconditioned)
Constructing CG search direction
[...]
+Hartree energy                  =        14.67306873017734858 eV
+Local pseudopotential energy    =       -75.20612502390910947 eV
----------------------------------
Potential energy (total)         =      -126.08513384786193967 eV
                                  
+Kinetic energy                  =        82.21695498536055879 eV
+Non-local energy                =        59.00371659675261782 eV
+Ewald energy (const)            =      -230.21777127234247473 eV
+non-Coulombic energy (const)    =        -1.00874254030012911 eV
----------------------------------
Total energy                     =      -216.09097607839137822 eV
 
(XC correction to eigenvalue sum =        19.92613029128574809 eV)
(Hubbard U correction to eigenvalu         0.00000000000000000 eV)
 
----- Parabolic fit, E = a + bx + cx^2 -----
initial energy            =  -0.21609098E+03
First trial step          =   0.15000000E+01
First trial energy        =  -0.21609098E+03
Fit parameters:         a =  -0.21609098E+03
                        b =  -0.15106044E-07
                        c =   0.63215406E-08
Parabolic minimum at step =   0.11948072E+01
Parabolic minimum energy  =  -0.21609098E+03
--------------------------------------------
line_minimisation: Taking next trial step, step=   1.1948072
Calculating density (no density mixing)
Symmetrising density
Calculating local potential
Calculating KE and non-local eigenvalues to find total energy
 
2nd trial energies
Exchange-correlation energy      =       -65.55207982868687111 eV
+Hartree energy                  =        14.67307483822492920 eV
+Local pseudopotential energy    =       -75.20614420236465492 eV
----------------------------------
Potential energy (total)         =      -126.08514919282653466 eV
                                  
+Kinetic energy                  =        82.21696286365525452 eV
+Non-local energy                =        59.00372406368844480 eV
+Ewald energy (const)            =      -230.21777127234247473 eV
+non-Coulombic energy (const)    =        -1.00874254030012911 eV
----------------------------------
Total energy                     =      -216.09097607812546471 eV
 
(XC correction to eigenvalue sum =        19.92613100397268866 eV)
(Hubbard U correction to eigenvalu         0.00000000000000000 eV)
 
line_minimisation: Energy has increased, using best of previous steps     1.5000000
Calculating density (no density mixing)
Symmetrising density
Calculating local potential
Calculating KE and non-local eigenvalues to find total energy
line_minimisation: Final energy =     -216.0909761
+------------------- WAVEFUNCTION LINE MINIMISATION --------------------+<- line
| Initial energy = -2.160910E+002 eV; initial dE/dstep = -1.511E-008 eV |<- line
|                                                                       |<- line
|            1st step    2nd step    3rd step    4th step    5th step   |<- line
+--------+--------------------------------------------------------------+<- line
| step   |  1.500E+00*  1.195E+00  unnecessary unnecessary unnecessary  |<- line
| gain   |  8.436E-09*  8.170E-09  unnecessary unnecessary unnecessary  |<- line
+--------+--------------------------------------------------------------+<- line
 * indicates the final, accepted state (should have the lowest energy)          
 
Updating gradient
Calculating non-local weights
Applying Hamiltonian in reciprocal space to find (H-ES)|wvfn>                   
Starting self-consistent electronic minimisation step      4 of      5
Conjugate gradient step      3
Minimisation for step      4 is of type CG  
Constructing projected SD direction (preconditioned)
Constructing CG search direction
CG all bands factors:  6.583524E-011   2.390623E-010   2.753895E-001
Derivative of energy wrt step direction = -0.44561301E-08eV
 
Prior to line minimisation
Exchange-correlation energy      =       -65.55207755413020720 eV
+Hartree energy                  =        14.67306873017734858 eV
+Local pseudopotential energy    =       -75.20612502390910947 eV
----------------------------------
Potential energy (total)         =      -126.08513384786193967 eV
                                  
+Kinetic energy                  =        82.21695498536055879 eV
+Non-local energy                =        59.00371659675261782 eV
+Ewald energy (const)            =      -230.21777127234247473 eV
+non-Coulombic energy (const)    =        -1.00874254030012911 eV
----------------------------------
Total energy                     =      -216.09097607839137822 eV
 
(XC correction to eigenvalue sum =        19.92613029128574809 eV)
(Hubbard U correction to eigenvalu         0.00000000000000000 eV)
 
Starting line minimisation...
Energy at start of line minimisation =  -216.09098    eV
1st trial step =  1.5000000    
Calculating density (no density mixing)
Symmetrising density
Calculating local potential
Calculating KE and non-local eigenvalues to find total energy
 
1st trial energies
Exchange-correlation energy      =       -65.55206722664182450 eV
+Hartree energy                  =        14.67304109849487048 eV
+Local pseudopotential energy    =       -75.20603932126722668 eV
----------------------------------
Potential energy (total)         =      -126.08506544941418781 eV
                                  
+Kinetic energy                  =        82.21691560272969923 eV
+Non-local energy                =        59.00368758066655062 eV
+Ewald energy (const)            =      -230.21777127234247473 eV
+non-Coulombic energy (const)    =        -1.00874254030012911 eV
----------------------------------
Total energy                     =      -216.09097607866056023 eV
 
(XC correction to eigenvalue sum =        19.92612705466864043 eV)
(Hubbard U correction to eigenvalu         0.00000000000000000 eV)
 
----- Parabolic fit, E = a + bx + cx^2 -----
initial energy            =  -0.21609098E+03
First trial step          =   0.15000000E+01
First trial energy        =  -0.21609098E+03
Fit parameters:         a =  -0.21609098E+03
                        b =  -0.44561301E-08
                        c =   0.28511173E-08
Parabolic minimum at step =   0.78147085E+00
Parabolic minimum energy  =  -0.21609098E+03
--------------------------------------------
line_minimisation: Taking next trial step, step=   0.7814708
Calculating density (no density mixing)
Symmetrising density
Calculating local potential
Calculating KE and non-local eigenvalues to find total energy
 
2nd trial energies
Exchange-correlation energy      =       -65.55207217378338669 eV
+Hartree energy                  =        14.67305433479687515 eV
+Local pseudopotential energy    =       -75.20608037496711518 eV
----------------------------------
Potential energy (total)         =      -126.08509821395365691 eV
                                  
+Kinetic energy                  =        82.21693446746284906 eV
+Non-local energy                =        59.00370148006405913 eV
+Ewald energy (const)            =      -230.21777127234247473 eV
+non-Coulombic energy (const)    =        -1.00874254030012911 eV
----------------------------------
Total energy                     =      -216.09097607906934968 eV
 
(XC correction to eigenvalue sum =        19.92612860509422745 eV)
(Hubbard U correction to eigenvalu         0.00000000000000000 eV)
 
 Cubic energy fit, E = E_o + dE_dstep.x + ax^2 + bx^3
 dE_dstep               =  -4.4561300793814914E-009
 a                      =   6.4855211687807815E-009
 b                      =  -2.4229383667648254E-009
 1st step               =   1.5000000000000000     
 2nd step               =  0.78147084900558184     
 initial energy         =  -216.09097607839138     
 1st trial energy       =  -216.09097607866056     
 2nd trial energy       =  -216.09097607906935     
 Cubic minimum at step  =  0.46440388775607000     
 Cubic minimum energy   =  -216.09097607930474     
Trial wavefunction accepted, final energy =     -216.0909761eV
+------------------- WAVEFUNCTION LINE MINIMISATION --------------------+<- line
| Initial energy = -2.160910E+002 eV; initial dE/dstep = -4.456E-009 eV |<- line
|                                                                       |<- line
|            1st step    2nd step    3rd step    4th step    5th step   |<- line
+--------+--------------------------------------------------------------+<- line
| step   |  1.500E+00   7.815E-01* unnecessary unnecessary unnecessary  |<- line
| gain   |  2.692E-10   6.780E-10* unnecessary unnecessary unnecessary  |<- line
+--------+--------------------------------------------------------------+<- line
 * indicates the final, accepted state (should have the lowest energy)          
 
Updating gradient
Calculating non-local weights
Applying Hamiltonian in reciprocal space to find (H-ES)|wvfn>                   
Starting self-consistent electronic minimisation step      5 of      5
Conjugate gradient step      4
Minimisation for step      5 is of type CG  
Constructing projected SD direction (preconditioned)
Constructing CG search direction
CG all bands factors:  3.888166E-011   6.583524E-011   5.905903E-001
Derivative of energy wrt step direction = -0.38637842E-08eV
 
Prior to line minimisation
Exchange-correlation energy      =       -65.55207217378338669 eV
+Hartree energy                  =        14.67305433479687515 eV
+Local pseudopotential energy    =       -75.20608037496711518 eV
----------------------------------
Potential energy (total)         =      -126.08509821395365691 eV
                                  
+Kinetic energy                  =        82.21693446746283485 eV
+Non-local energy                =        59.00370148006405913 eV
+Ewald energy (const)            =      -230.21777127234247473 eV
+non-Coulombic energy (const)    =        -1.00874254030012911 eV
----------------------------------
Total energy                     =      -216.09097607906937810 eV
 
(XC correction to eigenvalue sum =        19.92612860509422745 eV)
(Hubbard U correction to eigenvalu         0.00000000000000000 eV)
 
Starting line minimisation...
Energy at start of line minimisation =  -216.09098    eV
1st trial step =  1.5000000    
Calculating density (no density mixing)
Symmetrising density
Calculating local potential
Calculating KE and non-local eigenvalues to find total energy
 
1st trial energies
Exchange-correlation energy      =       -65.55206106995785831 eV
+Hartree energy                  =        14.67302466345689638 eV
+Local pseudopotential energy    =       -75.20598872617085817 eV
----------------------------------
Potential energy (total)         =      -126.08502513267180234 eV
                                  
+Kinetic energy                  =        82.21689074081706394 eV
+Non-local energy                =        59.00367212670527550 eV
+Ewald energy (const)            =      -230.21777127234247473 eV
+non-Coulombic energy (const)    =        -1.00874254030012911 eV
----------------------------------
Total energy                     =      -216.09097607779207806 eV
 
(XC correction to eigenvalue sum =        19.92612512499794519 eV)
(Hubbard U correction to eigenvalu         0.00000000000000000 eV)
 
----- Parabolic fit, E = a + bx + cx^2 -----
initial energy            =  -0.21609098E+03
First trial step          =   0.15000000E+01
First trial energy        =  -0.21609098E+03
Fit parameters:         a =  -0.21609098E+03
                        b =  -0.38637842E-08
                        c =   0.31435354E-08
Parabolic minimum at step =   0.61456031E+00
Parabolic minimum energy  =  -0.21609098E+03
--------------------------------------------
line_minimisation: Taking next trial step, step=   0.6145603
Calculating density (no density mixing)
Symmetrising density
Calculating local potential
Calculating KE and non-local eigenvalues to find total energy
 
2nd trial energies
Exchange-correlation energy      =       -65.55206762454599811 eV
+Hartree energy                  =        14.67304217844046654 eV
+Local pseudopotential energy    =       -75.20604282632136517 eV
----------------------------------
Potential energy (total)         =      -126.08506827242685233 eV
                                  
+Kinetic energy                  =        82.21691655200081073 eV
+Non-local energy                =        59.00368945393504561 eV
+Ewald energy (const)            =      -230.21777127234247473 eV
+non-Coulombic energy (const)    =        -1.00874254030012911 eV
----------------------------------
Total energy                     =      -216.09097607913361117 eV
 
(XC correction to eigenvalue sum =        19.92612717929872090 eV)
(Hubbard U correction to eigenvalu         0.00000000000000000 eV)
 
 Cubic energy fit, E = E_o + dE_dstep.x + ax^2 + bx^3
 dE_dstep               =  -3.8637842127338646E-009
 a                      =   8.1807702402327698E-009
 b                      =  -3.3581547344886536E-009
 1st step               =   1.5000000000000000     
 2nd step               =  0.61456030910985804     
 initial energy         =  -216.09097607906938     
 1st trial energy       =  -216.09097607779208     
 2nd trial energy       =  -216.09097607913361     
 Cubic minimum at step  =  0.28679639033443993     
 Cubic minimum energy   =  -216.09097607958381     
Trial wavefunction accepted, final energy =     -216.0909761eV
+------------------- WAVEFUNCTION LINE MINIMISATION --------------------+<- line
| Initial energy = -2.160910E+002 eV; initial dE/dstep = -3.864E-009 eV |<- line
|                                                                       |<- line
|            1st step    2nd step    3rd step    4th step    5th step   |<- line
+--------+--------------------------------------------------------------+<- line
| step   |  1.500E+00   6.146E-01* unnecessary unnecessary unnecessary  |<- line
| gain   | -1.277E-09   6.424E-11* unnecessary unnecessary unnecessary  |<- line
+--------+--------------------------------------------------------------+<- line
 * indicates the final, accepted state (should have the lowest energy)          
 
Updating gradient
Calculating non-local weights
Applying Hamiltonian in reciprocal space to find (H-ES)|wvfn>                   
 no. bands in each block=           4
 
End of SCF cycle energies
Exchange-correlation energy      =       -65.55206762454599811 eV
+Hartree energy                  =        14.67304217844046654 eV
+Local pseudopotential energy    =       -75.20604282632136517 eV
----------------------------------
Potential energy (total)         =      -126.08506827242685233 eV
                                  
+Kinetic energy                  =        82.21691655200081073 eV
+Non-local energy                =        59.00368945393504561 eV
+Ewald energy (const)            =      -230.21777127234247473 eV
+non-Coulombic energy (const)    =        -1.00874254030012911 eV
----------------------------------
Total energy                     =      -216.09097607913361117 eV
 
(XC correction to eigenvalue sum =        19.92612717929872090 eV)
(Hubbard U correction to eigenvalu         0.00000000000000000 eV)
 
      6  -2.16090976E+002                    3.76290056E-008       0.98  <-- SCF
Preparing final Hamiltonian
Calculating density (no density mixing)
Symmetrising density
Calculating local potential
Calculating non-local weights
Applying Hamiltonian in reciprocal space to find H|wvfn>                        
Performing subspace diagonalisation
------------------------------------------------------------------------ <-- SCF
Total energy has converged after 6 SCF iterations.
 
Final energy =  -216.0909760791     eV
(energy not corrected for finite basis set)
 
Convergence criterion used: energy spread less than 3.6749E-07 over a sequence of 3 energies
Have a nice day.

Writing analysis data to Si2.castep_bin

Writing model to Si2.check
                            Ewald force:
Species #   1 Atom #   1 Fx:0.407836E-13 Fy:0.479795E-13 Fz:0.562351E-13 eV/A
Species #   1 Atom #   2 Fx:-.411172E-13 Fy:-.482019E-13 Fz:-.564575E-13 eV/A

 ******************** Ewald forces ********************
 *                                                    *
 *            Cartesian components (eV/A)             *
 * -------------------------------------------------- *
 *                   x            y            z      *
 *                                                    *
 * Si        1      0.00000      0.00000      0.00000 *
 * Si        2     -0.00000     -0.00000     -0.00000 *
 *                                                    *
 ******************************************************

 *************** Local potential forces ***************
 *                                                    *
 *            Cartesian components (eV/A)             *
 * -------------------------------------------------- *
 *                   x            y            z      *
 *                                                    *
 * Si        1      0.12010     -0.27526     -0.09148 *
 * Si        2     -0.12009      0.27526      0.09148 *
 *                                                    *
 ******************************************************

 ************* Non-local potential forces *************
 *                                                    *
 *            Cartesian components (eV/A)             *
 * -------------------------------------------------- *
 *                   x            y            z      *
 *                                                    *
 * Si        1      0.34986     -1.25533     -0.23423 *
 * Si        2     -0.34988      1.25538      0.23422 *
 *                                                    *
 ******************************************************

 *********** External Efield and/or dipole ************
 *                                                    *
 *            Cartesian components (eV/A)             *
 * -------------------------------------------------- *
 *                   x            y            z      *
 *                                                    *
 * Si        1      0.00000      0.00000      0.00000 *
 * Si        2      0.00000      0.00000      0.00000 *
 *                                                    *
 ******************************************************

 ***************** Symmetrised Forces *****************
 *                                                    *
 *            Cartesian components (eV/A)             *
 * -------------------------------------------------- *
 *                   x            y            z      *
 *                                                    *
 * Si        1     -0.00000      0.00000      0.00000 *
 * Si        2      0.00000      0.00000     -0.00000 *
 *                                                    *
 ******************************************************

 Pseudo atomic calculation performed for Si 3s2 3p2

 Converged in 16 iterations to a total energy of -102.0354 eV

Charge spilling parameter for spin component 1 = 0.78%
The total projected population is    8.000   0.000

     Atomic Populations (Mulliken)
     -----------------------------
Species   Ion     s      p      d      f     Total  Charge (e)
==============================================================
  Si       1     1.35   2.65   0.00   0.00   4.00     0.00
  Si       2     1.35   2.65   0.00   0.00   4.00     0.00
==============================================================

            Bond              Population      Length (A)
============================================================
         Si 1 -- Si 2              2.99        2.33434
============================================================


Writing analysis data to Si2.castep_bin

Writing model to Si2.check
 
 A BibTeX formatted list of references used in this run has been written to 
 Si2.bib
 
Initialisation time =      0.13 s
Calculation time    =      0.94 s
Finalisation time   =      0.01 s
Total time          =      1.09 s
