 +-------------------------------------------------+
 |                                                 |
 |      CCC   AA    SSS  TTTTT  EEEEE  PPPP        |
 |     C     A  A  S       T    E      P   P       |
 |     C     AAAA   SS     T    EEE    PPPP        |
 |     C     A  A     S    T    E      P           |
 |      CCC  A  A  SSS     T    EEEEE  P           |
 |                                                 |
 +-------------------------------------------------+
 |                                                 |
 | Welcome to Materials Studio CASTEP version 3.2  |
 | Ab Initio Total Energy Program                  |
 |                                                 |
 | Authors:                                        |
 | M. Segall, M. Probert, C. Pickard, P. Hasnip    |
 | S. Clark, K. Refson, M. Payne                   |
 |                                                 |
 | Contributors:                                   |
 | P. Lindan, P. Haynes, J. White, V. Milman       |
 | N. Govind, M. Gibson, P. Tulip, V. Cocula       |
 | B. Montanari, D. Quigley                        |
 |                                                 |
 | Copyright (c) 2000,2001,2002,2003,2004          |
 |                                                 |
 | Please cite                                     |
 |                                                 |
 |    "First-principles simulation: ideas,         |
 |    illustrations and the CASTEP code",          |
 |                                                 |
 | J. Phys.: Cond. Matt. 14(11) pp.2717-2743 (2002)|
 |                                                 |
 | M. D. Segall, P. J. D. Lindan, M. J. Probert,   |
 | C. J. Pickard, P. J. Hasnip, S. J. Clark,       |
 | M. C. Payne                                     |
 |                                                 |
 |       in all publications arising from          |
 |              your use of CASTEP                 |
 |                                                 |
 +-------------------------------------------------+
 
License checkout of MS_castep successful
Number of licenses checked out     1
 
 Warning in parameters_read: number of up-spin electrons is equal to the
                             number of down-spins and spin_polarized=true
                             - consider setting spin_polarized=false.
 
 Pseudo atomic calculation performed for H 1s1
 
 Converged in 18 iterations to a total energy of -12.460019 eV
 
 
 Pseudo atomic calculation performed for C 2s2 2p2
 
 Converged in 21 iterations to a total energy of -146.419565 eV
 
Calculation parallelised over    1 nodes.
K-points are distributed over    1 groups, each containing    1 nodes.

 ************************************ Title ************************************
 CASTEP calculation from Materials Studio

 ***************************** General Parameters ******************************
  
 output verbosity                               : normal  (1)
 write checkpoint data to                       : Gph-H.check
 type of calculation                            : geometry optimization
 stress calculation                             : on
 density difference calculation                 : off
 unlimited duration calculation
 timing information                             : on
  
 output         length unit                     : A
 output           mass unit                     : amu
 output           time unit                     : ps
 output         charge unit                     : e
 output         energy unit                     : eV
 output          force unit                     : eV/A
 output       velocity unit                     : A/ps
 output       pressure unit                     : GPa
 output     inv_length unit                     : 1/A
 output      frequency unit                     : cm-1
 output force constant unit                     : eV/A**2
 output         volume unit                     : A**3
  
 wavefunctions paging                           : none
 random number generator seed                   : randomised (161632532)
 data distribution                              : optimal for this architecture
 optimization strategy                          : balance speed and memory

 *********************** Exchange-Correlation Parameters ***********************
  
 using functional                               : Perdew Burke Ernzerhof

 ************************* Pseudopotential Parameters **************************
  
 pseudopotential representation                 : reciprocal space
 <beta|phi> representation                      : reciprocal space

 **************************** Basis Set Parameters *****************************
  
 plane wave basis set cut-off                   :   310.0000   eV
 size of standard grid                          :     1.7500
 size of fine grid                              :    15.7855   1/A
 finite basis set correction                    : automatic
 number of sample energies                      :          3
           sample  spacing                      :     5.0000   eV

 **************************** Electronic Parameters ****************************
  
 number of  electrons                           :         22
 net charge of system                           :          0
 net spin   of system                           :          0
 number of  up  spins                           :         11
 number of down spins                           :         11
 treating system as spin-polarized
 number of bands                                :         15

 ********************* Electronic Minimization Parameters **********************
  
 Method: Treating system as metallic with density mixing treatment of electrons,
         and number of  SD  steps               :          1
         and number of  CG  steps               :          4
  
 total energy / atom convergence tol.           : 0.5000E-06   eV
 eigen-energy convergence tolerance             : 0.3333E-06   eV
 convergence tolerance window                   :          3   cycles
 max. number of SCF cycles                      :        100
 number of fixed-spin iterations                :          6
 smearing scheme                                : Gaussian
 smearing width                                 : 0.1000       eV
 Fermi energy convergence tolerance             : 0.3333E-07   eV

 ************************** Density Mixing Parameters **************************
  
 density-mixing scheme                          : Pulay
 max. length of mixing history                  :         20
 charge density mixing amplitude                : 0.5000    
   spin density mixing amplitude                :  2.000    
 cut-off energy for mixing                      :  310.0       eV
 charge density mixing g-vector                 :  1.500       1/A
   spin density mixing g-vector                 :  1.500       1/A

 ********************** Geometry Optimization Parameters ***********************
  
 optimization method                            : BFGS
 variable cell method                           : fixed basis quality
 max. number of steps                           :        100
 estimated bulk modulus                         :  500.0       GPa
 estimated <frequency>                          :  1668.       cm-1
 total energy convergence tolerance             : 0.5000E-05   eV/atom
        max ionic |force| tolerance             : 0.1000E-01   eV/A
 max ionic |displacement| tolerance             : 0.5000E-03   A
   max |stress component| tolerance             : 0.2000E-01   GPa
 convergence tolerance window                   :          2   steps
 backup results every                           :          5   steps

 *******************************************************************************
  
 
                           -------------------------------
                                      Unit Cell
                           -------------------------------
        Real Lattice(A)                      Reciprocal Lattice(1/A)
   3.4641016  -2.0000000   0.0000000        1.8137994   0.0000000   0.0000000
   0.0000000   4.0000000   0.0000000        0.9068997   1.5707963   0.0000000
   0.0000000   0.0000000   6.8000000        0.0000000   0.0000000   0.9239978
 
                       Lattice parameters(A)       Cell Angles
                    a =    4.000000          alpha =   90.000000
                    b =    4.000000          beta  =   90.000000
                    c =    6.800000          gamma =  120.000000
 
                       Current cell volume =   94.223564       A**3
 
                           -------------------------------
                                     Cell Contents
                           -------------------------------
                         Total number of ions in cell =   10
                      Total number of species in cell =    2
                        Max number of any one species =    6
 
            xxxxxxxxxxxxxxxxxxxxxxxxxxxxxxxxxxxxxxxxxxxxxxxxxxxxxxxxxxxx
            x  Element    Atom        Fractional coordinates of atoms  x
            x            Number           u          v          w      x
            x----------------------------------------------------------x
            x   H          1          0.833330   0.166670   0.750000   x
            x   H          2         -0.166670   0.666660   0.750000   x
            x   H          3         -0.666660  -0.833330   0.750000   x
            x   H          4         -0.833330  -0.166670   1.250000   x
            x   H          5          0.166670  -0.666660   1.250000   x
            x   H          6          0.666660   0.833330   1.250000   x
            x   C          1          0.000000   0.000000   0.250000   x
            x   C          2          0.000000   0.000000   0.750000   x
            x   C          3          0.333333   0.666667   0.250000   x
            x   C          4         -0.333333  -0.666667   0.750000   x
            xxxxxxxxxxxxxxxxxxxxxxxxxxxxxxxxxxxxxxxxxxxxxxxxxxxxxxxxxxxx
 
 
                         No user defined ionic velocities
 
                           -------------------------------
                                   Details of Species
                           -------------------------------
 
                               Mass of species in AMU
                                    H      1.0080000
                                    C     12.0109997
 
                          Electric Quadrupole Moment (Barn)
                                    H      0.0028600 Isotope  2
                                    C      1.0000000 No Isotope Defined
 
                          Files used for pseudopotentials:
                                    H H_00.usp
                                    C C_00.usp
 
                           -------------------------------
                              k-Points For BZ Sampling
                           -------------------------------
                         Number of kpoints used =          16
 
             +++++++++++++++++++++++++++++++++++++++++++++++++++++++
             +  Number       Fractional coordinates        Weight  +
             +-----------------------------------------------------+
             +     1   0.428571   0.428571   0.375000   0.0612245  +
             +     2   0.428571   0.428571   0.125000   0.0612245  +
             +     3   0.428571   0.285714   0.375000   0.0612245  +
             +     4   0.428571   0.285714   0.125000   0.0612245  +
             +     5   0.428571   0.000000   0.375000   0.0612245  +
             +     6   0.428571   0.000000   0.125000   0.0612245  +
             +     7   0.428571  -0.142857   0.375000   0.1224490  +
             +     8   0.428571  -0.142857   0.125000   0.1224490  +
             +     9   0.285714   0.000000   0.375000   0.0612245  +
             +    10   0.285714   0.000000   0.125000   0.0612245  +
             +    11   0.285714  -0.142857   0.375000   0.0612245  +
             +    12   0.285714  -0.142857   0.125000   0.0612245  +
             +    13   0.142857   0.000000   0.375000   0.0612245  +
             +    14   0.142857   0.000000   0.125000   0.0612245  +
             +    15   0.000000   0.000000   0.375000   0.0102041  +
             +    16   0.000000   0.000000   0.125000   0.0102041  +
             +++++++++++++++++++++++++++++++++++++++++++++++++++++++
 
                           -------------------------------
                               Symmetry and Constraints
                           -------------------------------
 
                          Number of symmetry operations =          24
                 Set iprint > 1 for symmetry rotation details
 
                        Centre of mass is NOT constrained
       There are no ionic constraints specified or generated for this cell
 
                         Number of cell constraints= 4
                         Cell constraints are:  1 1 3 0 0 0
 
                         External pressure/stress (GPa)
                          0.00000   0.00000   0.00000
                                    0.00000   0.00000
                                              0.00000
Calculating finite basis set correction with  3 cut-off energies.
Calculating total energy with cut-off of  300.000eV.
------------------------------------------------------------------------ <-- SCF
SCF loop      Energy           Fermi           Energy gain       Timer   <-- SCF
                               energy          per atom          (sec)   <-- SCF
------------------------------------------------------------------------ <-- SCF
Initial   4.25571510E+001  5.13638423E+001                         4.53  <-- SCF
      1  -6.09692198E+002  1.59357739E+000   6.52249349E+001       9.94  <-- SCF
      2  -6.92711776E+002 -1.32842168E+000   8.30195775E+000      14.91  <-- SCF
      3  -6.97264615E+002 -5.50899652E-001   4.55283935E-001      22.28  <-- SCF
      4  -6.97268384E+002  2.37809390E-002   3.76831259E-004      30.06  <-- SCF
      5  -6.97190950E+002  1.41218583E-001  -7.74338022E-003      37.66  <-- SCF
      6  -6.97207901E+002  1.91597068E-001   1.69515782E-003      45.34  <-- SCF
      7  -6.97214237E+002  2.02616423E-001   6.33526248E-004      52.67  <-- SCF
      8  -6.97219157E+002  2.13033732E-001   4.92003508E-004      59.72  <-- SCF
      9  -6.97224032E+002  2.17955271E-001   4.87493940E-004      66.73  <-- SCF
     10  -6.97217582E+002  2.21245988E-001  -6.44974030E-004      73.61  <-- SCF
     11  -6.97222007E+002  2.29292943E-001   4.42556284E-004      80.50  <-- SCF
     12  -6.97224767E+002  2.34554606E-001   2.75979385E-004      87.53  <-- SCF
     13  -6.97202659E+002  2.17867134E-001  -2.21080237E-003      94.31  <-- SCF
     14  -6.97215170E+002  2.15343001E-001   1.25103180E-003     101.27  <-- SCF
     15  -6.97217164E+002  2.21166105E-001   1.99455894E-004     108.16  <-- SCF
     16  -6.97215614E+002  2.21248983E-001  -1.55022897E-004     114.97  <-- SCF
     17  -6.97214382E+002  2.18367978E-001  -1.23212255E-004     121.94  <-- SCF
     18  -6.97214947E+002  2.17241144E-001   5.64833655E-005     128.94  <-- SCF
     19  -6.97215463E+002  2.16920911E-001   5.16295992E-005     135.77  <-- SCF
     20  -6.97214765E+002  2.17538057E-001  -6.97954597E-005     142.52  <-- SCF
     21  -6.97213978E+002  2.20819762E-001  -7.86489071E-005     149.55  <-- SCF
     22  -6.97215723E+002  2.21507482E-001   1.74486028E-004     156.39  <-- SCF
     23  -6.97215751E+002  2.19986337E-001   2.78839169E-006     162.28  <-- SCF
     24  -6.97215798E+002  2.20581212E-001   4.67603875E-006     167.55  <-- SCF
     25  -6.97215943E+002  2.20612516E-001   1.44773411E-005     173.83  <-- SCF
     26  -6.97214519E+002  2.19706137E-001  -1.42375467E-004     180.73  <-- SCF
     27  -6.97214488E+002  2.20006233E-001  -3.13926854E-006     187.69  <-- SCF
     28  -6.97215421E+002  2.20476511E-001   9.33695643E-005     194.50  <-- SCF
     29  -6.97215123E+002  2.20165359E-001  -2.98703547E-005     201.33  <-- SCF
     30  -6.97215451E+002  2.20109176E-001   3.28326588E-005     208.14  <-- SCF
     31  -6.97215591E+002  2.20366321E-001   1.39893068E-005     213.86  <-- SCF
     32  -6.97215409E+002  2.20487380E-001  -1.81879956E-005     222.25  <-- SCF
     33  -6.97215302E+002  2.20384266E-001  -1.06965279E-005     228.92  <-- SCF
     34  -6.97215421E+002  2.20248753E-001   1.19552965E-005     234.69  <-- SCF
     35  -6.97215424E+002  2.20112472E-001   2.78176609E-007     239.95  <-- SCF
     36  -6.97215426E+002  2.20096490E-001   1.87143114E-007     245.05  <-- SCF
------------------------------------------------------------------------ <-- SCF
 
 2*Integrated Spin Density   =    0.661968E-04
 2*Integrated |Spin Density| =    0.110721E-01
 
Final energy, E             =  -697.1670539573     eV
Final free energy (E-TS)    =  -697.2154261367     eV
(energies not corrected for finite basis set)
 
NB est. 0K energy (E-0.5TS) =  -697.1912400470     eV
 
Calculating total energy with cut-off of  305.000eV.
------------------------------------------------------------------------ <-- SCF
SCF loop      Energy           Fermi           Energy gain       Timer   <-- SCF
                               energy          per atom          (sec)   <-- SCF
------------------------------------------------------------------------ <-- SCF
Initial  -6.97216828E+002  2.20289912E-001                       250.88  <-- SCF
      1  -6.97249619E+002  2.17320679E-001   3.27905038E-003     255.08  <-- SCF
      2  -6.97249630E+002  2.17319681E-001   1.08658660E-006     258.38  <-- SCF
      3  -6.97249640E+002  2.18751748E-001   1.05847339E-006     263.50  <-- SCF
      4  -6.97249676E+002  2.19752586E-001   3.56188860E-006     268.94  <-- SCF
      5  -6.97249913E+002  2.18791739E-001   2.36742443E-005     275.56  <-- SCF
      6  -6.97250252E+002  2.18905889E-001   3.39335630E-005     281.92  <-- SCF
      7  -6.97249544E+002  2.18827862E-001  -7.08248599E-005     288.52  <-- SCF
      8  -6.97249711E+002  2.19141819E-001   1.67156228E-005     294.36  <-- SCF
      9  -6.97249778E+002  2.19501282E-001   6.70904983E-006     300.52  <-- SCF
     10  -6.97249788E+002  2.19502708E-001   9.59901378E-007     305.70  <-- SCF
     11  -6.97249776E+002  2.19511861E-001  -1.12636108E-006     310.95  <-- SCF
     12  -6.97249767E+002  2.19556815E-001  -9.44000861E-007     316.03  <-- SCF
     13  -6.97249680E+002  2.19648833E-001  -8.70027239E-006     322.19  <-- SCF
     14  -6.97249583E+002  2.19704460E-001  -9.65897632E-006     329.02  <-- SCF
     15  -6.97249656E+002  2.19706183E-001   7.22995551E-006     334.22  <-- SCF
     16  -6.97249670E+002  2.19712788E-001   1.39250241E-006     339.27  <-- SCF
     17  -6.97249696E+002  2.19707519E-001   2.62390687E-006     344.25  <-- SCF
     18  -6.97249641E+002  2.19704219E-001  -5.45562113E-006     349.41  <-- SCF
     19  -6.97249629E+002  2.19710920E-001  -1.18403298E-006     354.55  <-- SCF
     20  -6.97249626E+002  2.19725515E-001  -3.37829602E-007     359.61  <-- SCF
     21  -6.97249614E+002  2.19745190E-001  -1.19284039E-006     364.62  <-- SCF
     22  -6.97249618E+002  2.19758074E-001   4.06723262E-007     369.72  <-- SCF
     23  -6.97249621E+002  2.19760862E-001   2.84755756E-007     374.72  <-- SCF
     24  -6.97249625E+002  2.19766594E-001   3.68632630E-007     379.72  <-- SCF
     25  -6.97249598E+002  2.19773687E-001  -2.66919365E-006     384.80  <-- SCF
     26  -6.97249574E+002  2.19792946E-001  -2.42964901E-006     389.86  <-- SCF
     27  -6.97249563E+002  2.19812182E-001  -1.01807839E-006     394.92  <-- SCF
     28  -6.97249581E+002  2.19825125E-001   1.73309321E-006     400.00  <-- SCF
     29  -6.97249460E+002  2.19902263E-001  -1.20714094E-005     406.38  <-- SCF
     30  -6.97249540E+002  2.19932207E-001   7.99892287E-006     411.56  <-- SCF
     31  -6.97243397E+002  2.18198416E-001  -6.14339355E-004     418.12  <-- SCF
     32  -6.97249531E+002  2.18604297E-001   6.13465200E-004     424.58  <-- SCF
     33  -6.97249368E+002  2.18511617E-001  -1.63097447E-005     431.27  <-- SCF
     34  -6.97249463E+002  2.18720595E-001   9.51936676E-006     437.75  <-- SCF
     35  -6.97249581E+002  2.18744229E-001   1.17570761E-005     443.34  <-- SCF
     36  -6.97249381E+002  2.18952809E-001  -2.00325670E-005     449.95  <-- SCF
     37  -6.97249225E+002  2.19107555E-001  -1.55885810E-005     456.67  <-- SCF
     38  -6.97249466E+002  2.19033303E-001   2.41061909E-005     463.30  <-- SCF
     39  -6.97249552E+002  2.18974841E-001   8.56820159E-006     468.94  <-- SCF
     40  -6.97249573E+002  2.18968826E-001   2.11485390E-006     474.00  <-- SCF
     41  -6.97249552E+002  2.18995579E-001  -2.11738308E-006     479.09  <-- SCF
     42  -6.97249568E+002  2.19029938E-001   1.67690405E-006     484.08  <-- SCF
     43  -6.97249563E+002  2.18992239E-001  -5.43303044E-007     489.14  <-- SCF
     44  -6.97249417E+002  2.18925962E-001  -1.45474845E-005     495.52  <-- SCF
     45  -6.97249517E+002  2.18968365E-001   9.97808454E-006     501.00  <-- SCF
     46  -6.97249481E+002  2.18991145E-001  -3.56913745E-006     506.20  <-- SCF
     47  -6.97249489E+002  2.18958005E-001   7.98727724E-007     511.20  <-- SCF
     48  -6.97249282E+002  2.19091437E-001  -2.07566668E-005     517.75  <-- SCF
     49  -6.97249417E+002  2.19217710E-001   1.34648967E-005     523.23  <-- SCF
     50  -6.97249188E+002  2.19317935E-001  -2.28537595E-005     529.86  <-- SCF
     51  -6.97249017E+002  2.19368705E-001  -1.71327730E-005     536.48  <-- SCF
     52  -6.97249443E+002  2.19180746E-001   4.26274195E-005     543.12  <-- SCF
     53  -6.97249634E+002  2.19193914E-001   1.91184068E-005     548.94  <-- SCF
     54  -6.97249632E+002  2.19202902E-001  -1.92477435E-007     553.98  <-- SCF
     55  -6.97249583E+002  2.19077932E-001  -4.91560203E-006     560.38  <-- SCF
     56  -6.97249631E+002  2.19099985E-001   4.79044931E-006     565.72  <-- SCF
     57  -6.97249649E+002  2.19124062E-001   1.79877800E-006     570.69  <-- SCF
     58  -6.97249574E+002  2.19193492E-001  -7.46423161E-006     577.12  <-- SCF
     59  -6.97249643E+002  2.19191821E-001   6.86466601E-006     582.36  <-- SCF
     60  -6.97249634E+002  2.19152802E-001  -8.53686912E-007     587.47  <-- SCF
     61  -6.97249644E+002  2.19266956E-001   1.00611055E-006     592.48  <-- SCF
     62  -6.97249643E+002  2.19248615E-001  -1.11855921E-007     597.52  <-- SCF
     63  -6.97249641E+002  2.19208484E-001  -2.28506982E-007     602.48  <-- SCF
------------------------------------------------------------------------ <-- SCF
 
 2*Integrated Spin Density   =   -0.323716E-02
 2*Integrated |Spin Density| =    0.205717E-01
 
Final energy, E             =  -697.2012483148     eV
Final free energy (E-TS)    =  -697.2496410633     eV
(energies not corrected for finite basis set)
 
NB est. 0K energy (E-0.5TS) =  -697.2254446890     eV
 
Calculating total energy with cut-off of  310.000eV.
------------------------------------------------------------------------ <-- SCF
SCF loop      Energy           Fermi           Energy gain       Timer   <-- SCF
                               energy          per atom          (sec)   <-- SCF
------------------------------------------------------------------------ <-- SCF
Initial  -6.97251074E+002  2.19237595E-001                       609.14  <-- SCF
      1  -6.97281655E+002  2.16629942E-001   3.05812900E-003     614.83  <-- SCF
      2  -6.97281665E+002  2.16629814E-001   9.64575626E-007     618.86  <-- SCF
      3  -6.97281680E+002  2.17733991E-001   1.47001707E-006     626.39  <-- SCF
      4  -6.97281934E+002  2.18535708E-001   2.53737245E-005     634.92  <-- SCF
      5  -6.97282061E+002  2.18178278E-001   1.26979460E-005     643.62  <-- SCF
      6  -6.97281719E+002  2.18002482E-001  -3.41443034E-005     652.30  <-- SCF
      7  -6.97281906E+002  2.18043671E-001   1.87088199E-005     659.27  <-- SCF
      8  -6.97281665E+002  2.18070138E-001  -2.41487422E-005     667.22  <-- SCF
      9  -6.97281701E+002  2.18283786E-001   3.63833029E-006     674.03  <-- SCF
     10  -6.97281737E+002  2.18269302E-001   3.58353390E-006     681.20  <-- SCF
     11  -6.97281760E+002  2.18272569E-001   2.31274697E-006     687.73  <-- SCF
     12  -6.97281640E+002  2.18241399E-001  -1.20003245E-005     695.83  <-- SCF
     13  -6.97281672E+002  2.18202319E-001   3.18056045E-006     702.70  <-- SCF
     14  -6.97281675E+002  2.18089278E-001   3.06100890E-007     709.73  <-- SCF
     15  -6.97281688E+002  2.18063536E-001   1.33989964E-006     716.30  <-- SCF
     16  -6.97281693E+002  2.18086951E-001   5.02729091E-007     722.78  <-- SCF
     17  -6.97281694E+002  2.18112536E-001   2.98796434E-008     729.22  <-- SCF
     18  -6.97281693E+002  2.18126577E-001  -5.28005870E-008     735.77  <-- SCF
------------------------------------------------------------------------ <-- SCF
 
 2*Integrated Spin Density   =   -0.120110E-02
 2*Integrated |Spin Density| =    0.781493E-02
 
Final energy, E             =  -697.2333042000     eV
Final free energy (E-TS)    =  -697.2816930949     eV
(energies not corrected for finite basis set)
 
NB est. 0K energy (E-0.5TS) =  -697.2574986475     eV
 
 For future reference: finite basis dEtot/dlog(Ecut) =      -2.027576eV
 Total energy corrected for finite basis set =    -697.281456 eV
 
 ******************************** Forces *********************************
 *                                                                       *
 *                      Cartesian components (eV/A)                      *
 * --------------------------------------------------------------------- *
 *              x                    y                    z              *
 *                                                                       *
 * H    1      0.01008             -0.01746              0.00000         *
 * H    2      0.01008              0.01746              0.00000         *
 * H    3     -0.02016              0.00000              0.00000         *
 * H    4     -0.01008              0.01746              0.00000         *
 * H    5     -0.01008             -0.01746              0.00000         *
 * H    6      0.02016              0.00000              0.00000         *
 * C    1      0.00000              0.00000              0.00000         *
 * C    2      0.00000              0.00000              0.00000         *
 * C    3      0.00000              0.00000              0.00000         *
 * C    4      0.00000              0.00000              0.00000         *
 *                                                                       *
 *************************************************************************
 
 ***************** Stress Tensor *****************
 *                                               *
 *          Cartesian components (GPa)           *
 * --------------------------------------------- *
 *             x             y             z     *
 *                                               *
 *  x    -34.026731      0.000000      0.000000  *
 *  y      0.000000    -34.026731      0.000000  *
 *  z      0.000000      0.000000      0.745046  *
 *                                               *
 *  Pressure:   22.4361                          *
 *                                               *
 *************************************************
 BFGS: finished iteration   0  with enthalpy= -6.97281456E+002 eV
  
 +-----------+-----------------+-----------------+------------+-----+ <-- BFGS
 | Parameter |      value      |    tolerance    |    units   | OK? | <-- BFGS
 +-----------+-----------------+-----------------+------------+-----+ <-- BFGS
 |  dE/ion   |   0.000000E+000 |   5.000000E-006 |         eV | No  | <-- BFGS
 |  |F|max   |   2.015825E-002 |   1.000000E-002 |       eV/A | No  | <-- BFGS
 |  |dR|max  |   0.000000E+000 |   5.000000E-004 |          A | Yes | <-- BFGS
 |   Smax    |   3.402673E+001 |   2.000000E-002 |        GPa | No  | <-- BFGS
 +-----------+-----------------+-----------------+------------+-----+ <-- BFGS
  

================================================================================
 Starting BFGS iteration          1 ...
================================================================================
  
 +------------+-------------+-------------+-----------------+ <-- min BFGS
 |    Step    |   lambda    |   F.delta   |    enthalpy     | <-- min BFGS
 +------------+-------------+-------------+-----------------+ <-- min BFGS
 |  previous  |    0.000000 |    0.033374 |     -697.281456 | <-- min BFGS
 +------------+-------------+-------------+-----------------+ <-- min BFGS
  

--------------------------------------------------------------------------------
 BFGS: starting iteration         1 with trial guess (lambda=  1.000000)
--------------------------------------------------------------------------------
 
                           -------------------------------
                                      Unit Cell
                           -------------------------------
        Real Lattice(A)              Reciprocal Lattice(1/A)
   3.5426830  -2.0453690   0.0000000        1.7735669   0.0000000   0.0000000
   0.0000000   4.0907379   0.0000000        0.8867835   1.5359540   0.0000000
   0.0000000   0.0000000   6.7966225        0.0000000   0.0000000   0.9244570
 
                       Lattice parameters(A)       Cell Angles
                    a =    4.090738          alpha =   90.000000
                    b =    4.090738          beta  =   90.000000
                    c =    6.796622          gamma =  120.000000
 
                Current cell volume =   98.497929 A**3
 
                           -------------------------------
                                     Cell Contents
                           -------------------------------
 
            xxxxxxxxxxxxxxxxxxxxxxxxxxxxxxxxxxxxxxxxxxxxxxxxxxxxxxxxxxxx
            x  Element    Atom        Fractional coordinates of atoms  x
            x            Number           u          v          w      x
            x----------------------------------------------------------x
            x   H          1          0.833383   0.166617   0.750000   x
            x   H          2         -0.166617   0.666765   0.750000   x
            x   H          3         -0.666765  -0.833383   0.750000   x
            x   H          4         -0.833383  -0.166617   1.250000   x
            x   H          5          0.166617  -0.666765   1.250000   x
            x   H          6          0.666765   0.833383   1.250000   x
            x   C          1          0.000000   0.000000   0.250000   x
            x   C          2          0.000000   0.000000   0.750000   x
            x   C          3          0.333333   0.666667   0.250000   x
            x   C          4         -0.333333  -0.666667   0.750000   x
            xxxxxxxxxxxxxxxxxxxxxxxxxxxxxxxxxxxxxxxxxxxxxxxxxxxxxxxxxxxx
 
 
------------------------------------------------------------------------ <-- SCF
SCF loop      Energy           Fermi           Energy gain       Timer   <-- SCF
                               energy          per atom          (sec)   <-- SCF
------------------------------------------------------------------------ <-- SCF
Initial  -6.58308313E+002 -1.69796743E+000                       749.64  <-- SCF
      1  -6.99911995E+002 -1.76937713E+000   4.16036828E+000     755.47  <-- SCF
      2  -6.99922972E+002 -1.77012151E+000   1.09769244E-003     762.23  <-- SCF
      3  -6.98412448E+002 -8.85362227E-001  -1.51052399E-001     770.92  <-- SCF
      4  -6.98082232E+002 -1.63764573E-001  -3.30216116E-002     779.59  <-- SCF
      5  -6.98061561E+002 -1.38467294E-001  -2.06717251E-003     788.67  <-- SCF
      6  -6.98076999E+002 -1.09897121E-001   1.54388560E-003     797.53  <-- SCF
      7  -6.98079289E+002 -8.05847811E-002   2.28938156E-004     806.23  <-- SCF
      8  -6.98080941E+002 -7.17707554E-002   1.65252534E-004     815.02  <-- SCF
      9  -6.98080973E+002 -7.42414968E-002   3.16678746E-006     822.39  <-- SCF
     10  -6.98081010E+002 -7.29397805E-002   3.67189380E-006     829.05  <-- SCF
     11  -6.98081011E+002 -7.28535947E-002   1.31775757E-007     835.62  <-- SCF
     12  -6.98081010E+002 -7.28184486E-002  -1.32194367E-007     842.23  <-- SCF
------------------------------------------------------------------------ <-- SCF
 
 2*Integrated Spin Density   =   -0.463725E-03
 2*Integrated |Spin Density| =    0.904576E-03
 
Final energy, E             =  -698.0444932855     eV
Final free energy (E-TS)    =  -698.0810096946     eV
(energies not corrected for finite basis set)
 
NB est. 0K energy (E-0.5TS) =  -698.0627514900     eV
 
 
 ******************************** Forces *********************************
 *                                                                       *
 *                      Cartesian components (eV/A)                      *
 * --------------------------------------------------------------------- *
 *              x                    y                    z              *
 *                                                                       *
 * H    1      0.00294             -0.00509              0.00000         *
 * H    2      0.00294              0.00509              0.00000         *
 * H    3     -0.00588              0.00000              0.00000         *
 * H    4     -0.00294              0.00509              0.00000         *
 * H    5     -0.00294             -0.00509              0.00000         *
 * H    6      0.00588              0.00000              0.00000         *
 * C    1      0.00000              0.00000              0.00000         *
 * C    2      0.00000              0.00000              0.00000         *
 * C    3      0.00000              0.00000              0.00000         *
 * C    4      0.00000              0.00000              0.00000         *
 *                                                                       *
 *************************************************************************
 
 ***************** Stress Tensor *****************
 *                                               *
 *          Cartesian components (GPa)           *
 * --------------------------------------------- *
 *             x             y             z     *
 *                                               *
 *  x    -25.941364      0.000000      0.000000  *
 *  y      0.000000    -25.941364      0.000000  *
 *  z      0.000000      0.000000      0.774763  *
 *                                               *
 *  Pressure:   17.0360                          *
 *                                               *
 *************************************************
  
 +------------+-------------+-------------+-----------------+ <-- min BFGS
 |    Step    |   lambda    |   F.delta   |    enthalpy     | <-- min BFGS
 +------------+-------------+-------------+-----------------+ <-- min BFGS
 |  previous  |    0.000000 |    0.033374 |     -697.281456 | <-- min BFGS
 | trial step |    1.000000 |    0.026009 |     -698.080676 | <-- min BFGS
 +------------+-------------+-------------+-----------------+ <-- min BFGS
  

--------------------------------------------------------------------------------
 BFGS: improving iteration         1 with line minimization (lambda=  2.915964)
--------------------------------------------------------------------------------
 
                           -------------------------------
                                      Unit Cell
                           -------------------------------
        Real Lattice(A)              Reciprocal Lattice(1/A)
   3.6932421  -2.1322943   0.0000000        1.7012655   0.0000000   0.0000000
   0.0000000   4.2645886   0.0000000        0.8506327   1.4733391   0.0000000
   0.0000000   0.0000000   6.7901512        0.0000000   0.0000000   0.9253381
 
                       Lattice parameters(A)       Cell Angles
                    a =    4.264589          alpha =   90.000000
                    b =    4.264589          beta  =   90.000000
                    c =    6.790151          gamma =  120.000000
 
                Current cell volume =  106.945955 A**3
 
                           -------------------------------
                                     Cell Contents
                           -------------------------------
 
            xxxxxxxxxxxxxxxxxxxxxxxxxxxxxxxxxxxxxxxxxxxxxxxxxxxxxxxxxxxx
            x  Element    Atom        Fractional coordinates of atoms  x
            x            Number           u          v          w      x
            x----------------------------------------------------------x
            x   H          1          0.833483   0.166517   0.750000   x
            x   H          2         -0.166517   0.666967   0.750000   x
            x   H          3         -0.666967  -0.833483   0.750000   x
            x   H          4         -0.833483  -0.166517   1.250000   x
            x   H          5          0.166517  -0.666967   1.250000   x
            x   H          6          0.666967   0.833483   1.250000   x
            x   C          1          0.000000   0.000000   0.250000   x
            x   C          2          0.000000   0.000000   0.750000   x
            x   C          3          0.333333   0.666667   0.250000   x
            x   C          4         -0.333333  -0.666667   0.750000   x
            xxxxxxxxxxxxxxxxxxxxxxxxxxxxxxxxxxxxxxxxxxxxxxxxxxxxxxxxxxxx
 
 
------------------------------------------------------------------------ <-- SCF
SCF loop      Energy           Fermi           Energy gain       Timer   <-- SCF
                               energy          per atom          (sec)   <-- SCF
------------------------------------------------------------------------ <-- SCF
Initial  -6.72403875E+002 -2.00231346E+000                       856.38  <-- SCF
      1  -7.00494310E+002 -2.10052206E+000   2.80904348E+000     862.47  <-- SCF
      2  -7.00512782E+002 -2.10143792E+000   1.84726484E-003     869.41  <-- SCF
      3  -6.99301420E+002 -1.34625515E+000  -1.21136270E-001     878.16  <-- SCF
      4  -6.99122374E+002 -7.81398107E-001  -1.79045708E-002     887.20  <-- SCF
      5  -6.99012389E+002 -7.40659572E-001  -1.09985435E-002     896.17  <-- SCF
      6  -6.99040262E+002 -6.72312621E-001   2.78738816E-003     905.05  <-- SCF
      7  -6.99045114E+002 -6.62490745E-001   4.85109117E-004     914.16  <-- SCF
      8  -6.99045906E+002 -6.52071808E-001   7.92911153E-005     923.09  <-- SCF
      9  -6.99045964E+002 -6.52742459E-001   5.79220543E-006     930.58  <-- SCF
     10  -6.99045963E+002 -6.52763245E-001  -1.31705756E-007     937.25  <-- SCF
     11  -6.99045946E+002 -6.52772644E-001  -1.71016458E-006     944.00  <-- SCF
     12  -6.99045948E+002 -6.52773204E-001   1.61905497E-007     950.77  <-- SCF
     13  -6.99045948E+002 -6.52783344E-001   3.21603534E-008     957.50  <-- SCF
------------------------------------------------------------------------ <-- SCF
 
 2*Integrated Spin Density   =   -0.867521E-04
 2*Integrated |Spin Density| =    0.259748E-03
 
Final energy, E             =  -699.0238696382     eV
Final free energy (E-TS)    =  -699.0459478711     eV
(energies not corrected for finite basis set)
 
NB est. 0K energy (E-0.5TS) =  -699.0349087547     eV
 
 
 ******************************** Forces *********************************
 *                                                                       *
 *                      Cartesian components (eV/A)                      *
 * --------------------------------------------------------------------- *
 *              x                    y                    z              *
 *                                                                       *
 * H    1     -0.00369              0.00640              0.00000         *
 * H    2     -0.00369             -0.00640              0.00000         *
 * H    3      0.00739              0.00000              0.00000         *
 * H    4      0.00369             -0.00640              0.00000         *
 * H    5      0.00369              0.00640              0.00000         *
 * H    6     -0.00739              0.00000              0.00000         *
 * C    1      0.00000              0.00000              0.00000         *
 * C    2      0.00000              0.00000              0.00000         *
 * C    3      0.00000              0.00000              0.00000         *
 * C    4      0.00000              0.00000              0.00000         *
 *                                                                       *
 *************************************************************************
 
 ***************** Stress Tensor *****************
 *                                               *
 *          Cartesian components (GPa)           *
 * --------------------------------------------- *
 *             x             y             z     *
 *                                               *
 *  x    -11.777568      0.000000      0.000000  *
 *  y      0.000000    -11.777568      0.000000  *
 *  z      0.000000      0.000000      0.831601  *
 *                                               *
 *  Pressure:    7.5745                          *
 *                                               *
 *************************************************
  
 +------------+-------------+-------------+-----------------+ <-- min BFGS
 |    Step    |   lambda    |   F.delta   |    enthalpy     | <-- min BFGS
 +------------+-------------+-------------+-----------------+ <-- min BFGS
 |  previous  |    0.000000 |    0.033374 |     -697.281456 | <-- min BFGS
 | trial step |    1.000000 |    0.026009 |     -698.080676 | <-- min BFGS
 |  line step |    2.915964 |    0.012304 |     -699.045782 | <-- min BFGS
 +------------+-------------+-------------+-----------------+ <-- min BFGS
  
 BFGS: finished iteration   1  with enthalpy= -6.99045782E+002 eV
  
 +-----------+-----------------+-----------------+------------+-----+ <-- BFGS
 | Parameter |      value      |    tolerance    |    units   | OK? | <-- BFGS
 +-----------+-----------------+-----------------+------------+-----+ <-- BFGS
 |  dE/ion   |   1.764326E-001 |   5.000000E-006 |         eV | No  | <-- BFGS
 |  |F|max   |   7.388357E-003 |   1.000000E-002 |       eV/A | Yes | <-- BFGS
 |  |dR|max  |   1.132611E-003 |   5.000000E-004 |          A | No  | <-- BFGS
 |   Smax    |   1.177757E+001 |   2.000000E-002 |        GPa | No  | <-- BFGS
 +-----------+-----------------+-----------------+------------+-----+ <-- BFGS
  

================================================================================
 Starting BFGS iteration          2 ...
================================================================================
  
 +------------+-------------+-------------+-----------------+ <-- min BFGS
 |    Step    |   lambda    |   F.delta   |    enthalpy     | <-- min BFGS
 +------------+-------------+-------------+-----------------+ <-- min BFGS
 |  previous  |    0.000000 |    0.020969 |     -699.045782 | <-- min BFGS
 +------------+-------------+-------------+-----------------+ <-- min BFGS
  

--------------------------------------------------------------------------------
 BFGS: starting iteration         2 with trial guess (lambda=  1.000000)
--------------------------------------------------------------------------------
 
                           -------------------------------
                                      Unit Cell
                           -------------------------------
        Real Lattice(A)              Reciprocal Lattice(1/A)
   3.8270700  -2.2095599   0.0000000        1.6417743   0.0000000   0.0000000
   0.0000000   4.4191198   0.0000000        0.8208872   1.4218183   0.0000000
   0.0000000   0.0000000   6.7795830        0.0000000   0.0000000   0.9267805
 
                       Lattice parameters(A)       Cell Angles
                    a =    4.419120          alpha =   90.000000
                    b =    4.419120          beta  =   90.000000
                    c =    6.779583          gamma =  120.000000
 
                Current cell volume =  114.658211 A**3
 
                           -------------------------------
                                     Cell Contents
                           -------------------------------
 
            xxxxxxxxxxxxxxxxxxxxxxxxxxxxxxxxxxxxxxxxxxxxxxxxxxxxxxxxxxxx
            x  Element    Atom        Fractional coordinates of atoms  x
            x            Number           u          v          w      x
            x----------------------------------------------------------x
            x   H          1          0.833510   0.166490   0.750000   x
            x   H          2         -0.166490   0.667019   0.750000   x
            x   H          3         -0.667019  -0.833510   0.750000   x
            x   H          4         -0.833510  -0.166490   1.250000   x
            x   H          5          0.166490  -0.667019   1.250000   x
            x   H          6          0.667019   0.833510   1.250000   x
            x   C          1          0.000000   0.000000   0.250000   x
            x   C          2          0.000000   0.000000   0.750000   x
            x   C          3          0.333333   0.666667   0.250000   x
            x   C          4         -0.333333  -0.666667   0.750000   x
            xxxxxxxxxxxxxxxxxxxxxxxxxxxxxxxxxxxxxxxxxxxxxxxxxxxxxxxxxxxx
 
 
------------------------------------------------------------------------ <-- SCF
SCF loop      Energy           Fermi           Energy gain       Timer   <-- SCF
                               energy          per atom          (sec)   <-- SCF
------------------------------------------------------------------------ <-- SCF
Initial  -6.76320790E+002 -2.18224869E+000                       972.08  <-- SCF
      1  -7.00622578E+002 -2.26879044E+000   2.43017878E+000     978.16  <-- SCF
      2  -7.00636924E+002 -2.27000992E+000   1.43460863E-003     985.22  <-- SCF
      3  -6.99621269E+002 -1.69348658E+000  -1.01565508E-001     994.38  <-- SCF
      4  -6.99584632E+002 -1.27560839E+000  -3.66370237E-003    1003.73  <-- SCF
      5  -6.99308070E+002 -1.13124737E+000  -2.76562199E-002    1012.83  <-- SCF
      6  -6.99366517E+002 -1.09691641E+000   5.84475136E-003    1022.42  <-- SCF
      7  -6.99368432E+002 -1.05548029E+000   1.91426535E-004    1031.59  <-- SCF
      8  -6.99370166E+002 -1.04936838E+000   1.73404938E-004    1041.27  <-- SCF
      9  -6.99370191E+002 -1.04911650E+000   2.53184634E-006    1048.84  <-- SCF
     10  -6.99370249E+002 -1.05210250E+000   5.77187430E-006    1057.05  <-- SCF
     11  -6.99370255E+002 -1.05261175E+000   5.83165841E-007    1063.95  <-- SCF
     12  -6.99370251E+002 -1.05261699E+000  -3.03668391E-007    1070.73  <-- SCF
     13  -6.99370250E+002 -1.05278334E+000  -1.27705365E-007    1077.50  <-- SCF
------------------------------------------------------------------------ <-- SCF
 
 2*Integrated Spin Density   =    0.103712E-02
 2*Integrated |Spin Density| =    0.109553E-02
 
Final energy, E             =  -699.3372674944     eV
Final free energy (E-TS)    =  -699.3702501874     eV
(energies not corrected for finite basis set)
 
NB est. 0K energy (E-0.5TS) =  -699.3537588409     eV
 
 
 ******************************** Forces *********************************
 *                                                                       *
 *                      Cartesian components (eV/A)                      *
 * --------------------------------------------------------------------- *
 *              x                    y                    z              *
 *                                                                       *
 * H    1     -0.00112              0.00194              0.00000         *
 * H    2     -0.00112             -0.00194              0.00000         *
 * H    3      0.00225              0.00000              0.00000         *
 * H    4      0.00112             -0.00194              0.00000         *
 * H    5      0.00112              0.00194              0.00000         *
 * H    6     -0.00225              0.00000              0.00000         *
 * C    1      0.00000              0.00000              0.00000         *
 * C    2      0.00000              0.00000              0.00000         *
 * C    3      0.00000              0.00000              0.00000         *
 * C    4      0.00000              0.00000              0.00000         *
 *                                                                       *
 *************************************************************************
 
 ***************** Stress Tensor *****************
 *                                               *
 *          Cartesian components (GPa)           *
 * --------------------------------------------- *
 *             x             y             z     *
 *                                               *
 *  x     -3.323840      0.000000      0.000000  *
 *  y      0.000000     -3.323840      0.000000  *
 *  z      0.000000      0.000000      1.200809  *
 *                                               *
 *  Pressure:    1.8156                          *
 *                                               *
 *************************************************
  
 +------------+-------------+-------------+-----------------+ <-- min BFGS
 |    Step    |   lambda    |   F.delta   |    enthalpy     | <-- min BFGS
 +------------+-------------+-------------+-----------------+ <-- min BFGS
 |  previous  |    0.000000 |    0.020969 |     -699.045782 | <-- min BFGS
 | trial step |    1.000000 |    0.006163 |     -699.369051 | <-- min BFGS
 +------------+-------------+-------------+-----------------+ <-- min BFGS
  
 BFGS: finished iteration   2  with enthalpy= -6.99369051E+002 eV
  
 +-----------+-----------------+-----------------+------------+-----+ <-- BFGS
 | Parameter |      value      |    tolerance    |    units   | OK? | <-- BFGS
 +-----------+-----------------+-----------------+------------+-----+ <-- BFGS
 |  dE/ion   |   3.232695E-002 |   5.000000E-006 |         eV | No  | <-- BFGS
 |  |F|max   |   2.245635E-003 |   1.000000E-002 |       eV/A | Yes | <-- BFGS
 |  |dR|max  |   2.014214E-004 |   5.000000E-004 |          A | Yes | <-- BFGS
 |   Smax    |   3.323840E+000 |   2.000000E-002 |        GPa | No  | <-- BFGS
 +-----------+-----------------+-----------------+------------+-----+ <-- BFGS
  

================================================================================
 Starting BFGS iteration          3 ...
================================================================================
  
 +------------+-------------+-------------+-----------------+ <-- min BFGS
 |    Step    |   lambda    |   F.delta   |    enthalpy     | <-- min BFGS
 +------------+-------------+-------------+-----------------+ <-- min BFGS
 |  previous  |    0.000000 |    0.002606 |     -699.369051 | <-- min BFGS
 +------------+-------------+-------------+-----------------+ <-- min BFGS
  

--------------------------------------------------------------------------------
 BFGS: starting iteration         3 with trial guess (lambda=  1.000000)
--------------------------------------------------------------------------------
 
                           -------------------------------
                                      Unit Cell
                           -------------------------------
        Real Lattice(A)              Reciprocal Lattice(1/A)
   3.8828857  -2.2417851   0.0000000        1.6181741   0.0000000   0.0000000
   0.0000000   4.4835702   0.0000000        0.8090871   1.4013799   0.0000000
   0.0000000   0.0000000   6.7675427        0.0000000   0.0000000   0.9284293
 
                       Lattice parameters(A)       Cell Angles
                    a =    4.483570          alpha =   90.000000
                    b =    4.483570          beta  =   90.000000
                    c =    6.767543          gamma =  120.000000
 
                Current cell volume =  117.817444 A**3
 
                           -------------------------------
                                     Cell Contents
                           -------------------------------
 
            xxxxxxxxxxxxxxxxxxxxxxxxxxxxxxxxxxxxxxxxxxxxxxxxxxxxxxxxxxxx
            x  Element    Atom        Fractional coordinates of atoms  x
            x            Number           u          v          w      x
            x----------------------------------------------------------x
            x   H          1          0.833520   0.166480   0.750000   x
            x   H          2         -0.166480   0.667040   0.750000   x
            x   H          3         -0.667040  -0.833520   0.750000   x
            x   H          4         -0.833520  -0.166480   1.250000   x
            x   H          5          0.166480  -0.667040   1.250000   x
            x   H          6          0.667040   0.833520   1.250000   x
            x   C          1          0.000000   0.000000   0.250000   x
            x   C          2          0.000000   0.000000   0.750000   x
            x   C          3          0.333333   0.666667   0.250000   x
            x   C          4         -0.333333  -0.666667   0.750000   x
            xxxxxxxxxxxxxxxxxxxxxxxxxxxxxxxxxxxxxxxxxxxxxxxxxxxxxxxxxxxx
 
 
------------------------------------------------------------------------ <-- SCF
SCF loop      Energy           Fermi           Energy gain       Timer   <-- SCF
                               energy          per atom          (sec)   <-- SCF
------------------------------------------------------------------------ <-- SCF
Initial  -6.69989878E+002 -2.29284735E+000                      1092.20  <-- SCF
      1  -7.00587292E+002 -2.33101669E+000   3.05974137E+000    1098.95  <-- SCF
      2  -7.00592291E+002 -2.33154595E+000   4.99912420E-004    1106.62  <-- SCF
      3  -6.99667419E+002 -1.80535033E+000  -9.24872247E-002    1116.33  <-- SCF
      4  -6.99639999E+002 -1.44020773E+000  -2.74198831E-003    1126.22  <-- SCF
      5  -6.99336154E+002 -1.27402191E+000  -3.03845198E-002    1136.11  <-- SCF
      6  -6.99393778E+002 -1.22311224E+000   5.76246535E-003    1145.39  <-- SCF
      7  -6.99399939E+002 -1.20242776E+000   6.16079889E-004    1154.92  <-- SCF
      8  -6.99398016E+002 -1.20245966E+000  -1.92307513E-004    1164.12  <-- SCF
      9  -6.99402619E+002 -1.19939940E+000   4.60265580E-004    1173.31  <-- SCF
     10  -6.99394763E+002 -1.19793665E+000  -7.85585889E-004    1182.47  <-- SCF
     11  -6.99386653E+002 -1.16908131E+000  -8.10946018E-004    1191.83  <-- SCF
     12  -6.99395404E+002 -1.17803442E+000   8.75119070E-004    1200.95  <-- SCF
     13  -6.99392946E+002 -1.18127467E+000  -2.45812279E-004    1210.34  <-- SCF
     14  -6.99399295E+002 -1.18399308E+000   6.34868932E-004    1219.52  <-- SCF
     15  -6.99399647E+002 -1.18535911E+000   3.51867316E-005    1228.62  <-- SCF
     16  -6.99399693E+002 -1.18598019E+000   4.65512589E-006    1236.22  <-- SCF
     17  -6.99399722E+002 -1.18563722E+000   2.83595617E-006    1243.56  <-- SCF
     18  -6.99399683E+002 -1.18557216E+000  -3.83064020E-006    1250.78  <-- SCF
     19  -6.99399697E+002 -1.18552934E+000   1.30628394E-006    1258.08  <-- SCF
     20  -6.99399701E+002 -1.18540007E+000   4.90487791E-007    1265.27  <-- SCF
     21  -6.99399700E+002 -1.18539546E+000  -9.90024022E-008    1272.50  <-- SCF
------------------------------------------------------------------------ <-- SCF
 
 2*Integrated Spin Density   =    0.476179E-01
 2*Integrated |Spin Density| =    0.541115E-01
 
Final energy, E             =  -699.3644349612     eV
Final free energy (E-TS)    =  -699.3997004473     eV
(energies not corrected for finite basis set)
 
NB est. 0K energy (E-0.5TS) =  -699.3820677042     eV
 
 
 ******************************** Forces *********************************
 *                                                                       *
 *                      Cartesian components (eV/A)                      *
 * --------------------------------------------------------------------- *
 *              x                    y                    z              *
 *                                                                       *
 * H    1      0.00073             -0.00126              0.00000         *
 * H    2      0.00073              0.00126              0.00000         *
 * H    3     -0.00146              0.00000              0.00000         *
 * H    4     -0.00073              0.00126              0.00000         *
 * H    5     -0.00073             -0.00126              0.00000         *
 * H    6      0.00146              0.00000              0.00000         *
 * C    1      0.00000              0.00000              0.00000         *
 * C    2      0.00000              0.00000              0.00000         *
 * C    3      0.00000              0.00000              0.00000         *
 * C    4      0.00000              0.00000              0.00000         *
 *                                                                       *
 *************************************************************************
 
 ***************** Stress Tensor *****************
 *                                               *
 *          Cartesian components (GPa)           *
 * --------------------------------------------- *
 *             x             y             z     *
 *                                               *
 *  x     -0.868345      0.000000      0.000000  *
 *  y      0.000000     -0.868345      0.000000  *
 *  z      0.000000      0.000000      1.588336  *
 *                                               *
 *  Pressure:    0.0495                          *
 *                                               *
 *************************************************
  
 +------------+-------------+-------------+-----------------+ <-- min BFGS
 |    Step    |   lambda    |   F.delta   |    enthalpy     | <-- min BFGS
 +------------+-------------+-------------+-----------------+ <-- min BFGS
 |  previous  |    0.000000 |    0.002606 |     -699.369051 | <-- min BFGS
 | trial step |    1.000000 |    0.000751 |     -699.400725 | <-- min BFGS
 +------------+-------------+-------------+-----------------+ <-- min BFGS
  
 BFGS: finished iteration   3  with enthalpy= -6.99400725E+002 eV
  
 +-----------+-----------------+-----------------+------------+-----+ <-- BFGS
 | Parameter |      value      |    tolerance    |    units   | OK? | <-- BFGS
 +-----------+-----------------+-----------------+------------+-----+ <-- BFGS
 |  dE/ion   |   3.167434E-003 |   5.000000E-006 |         eV | No  | <-- BFGS
 |  |F|max   |   1.457723E-003 |   1.000000E-002 |       eV/A | Yes | <-- BFGS
 |  |dR|max  |   8.056400E-005 |   5.000000E-004 |          A | Yes | <-- BFGS
 |   Smax    |   1.588336E+000 |   2.000000E-002 |        GPa | No  | <-- BFGS
 +-----------+-----------------+-----------------+------------+-----+ <-- BFGS
  

================================================================================
 Starting BFGS iteration          4 ...
================================================================================
  
 +------------+-------------+-------------+-----------------+ <-- min BFGS
 |    Step    |   lambda    |   F.delta   |    enthalpy     | <-- min BFGS
 +------------+-------------+-------------+-----------------+ <-- min BFGS
 |  previous  |    0.000000 |    0.000375 |     -699.400725 | <-- min BFGS
 +------------+-------------+-------------+-----------------+ <-- min BFGS
  

--------------------------------------------------------------------------------
 BFGS: starting iteration         4 with trial guess (lambda=  1.000000)
--------------------------------------------------------------------------------
 
                           -------------------------------
                                      Unit Cell
                           -------------------------------
        Real Lattice(A)              Reciprocal Lattice(1/A)
   3.9060020  -2.2551313   0.0000000        1.6085976   0.0000000   0.0000000
   0.0000000   4.5102626   0.0000000        0.8042988   1.3930863   0.0000000
   0.0000000   0.0000000   6.7524105        0.0000000   0.0000000   0.9305100
 
                       Lattice parameters(A)       Cell Angles
                    a =    4.510263          alpha =   90.000000
                    b =    4.510263          beta  =   90.000000
                    c =    6.752410          gamma =  120.000000
 
                Current cell volume =  118.957857 A**3
 
                           -------------------------------
                                     Cell Contents
                           -------------------------------
 
            xxxxxxxxxxxxxxxxxxxxxxxxxxxxxxxxxxxxxxxxxxxxxxxxxxxxxxxxxxxx
            x  Element    Atom        Fractional coordinates of atoms  x
            x            Number           u          v          w      x
            x----------------------------------------------------------x
            x   H          1          0.833533   0.166467   0.750000   x
            x   H          2         -0.166467   0.667066   0.750000   x
            x   H          3         -0.667066  -0.833533   0.750000   x
            x   H          4         -0.833533  -0.166467   1.250000   x
            x   H          5          0.166467  -0.667066   1.250000   x
            x   H          6          0.667066   0.833533   1.250000   x
            x   C          1          0.000000   0.000000   0.250000   x
            x   C          2          0.000000   0.000000   0.750000   x
            x   C          3          0.333333   0.666667   0.250000   x
            x   C          4         -0.333333  -0.666667   0.750000   x
            xxxxxxxxxxxxxxxxxxxxxxxxxxxxxxxxxxxxxxxxxxxxxxxxxxxxxxxxxxxx
 
 
------------------------------------------------------------------------ <-- SCF
SCF loop      Energy           Fermi           Energy gain       Timer   <-- SCF
                               energy          per atom          (sec)   <-- SCF
------------------------------------------------------------------------ <-- SCF
Initial  -6.66823792E+002 -2.32147655E+000                      1287.58  <-- SCF
      1  -7.00561989E+002 -2.34717638E+000   3.37381963E+000    1294.44  <-- SCF
      2  -7.00565152E+002 -2.34760401E+000   3.16393490E-004    1301.52  <-- SCF
      3  -6.99672204E+002 -1.83758429E+000  -8.92948462E-002    1311.59  <-- SCF
      4  -6.99640258E+002 -1.48865078E+000  -3.19459578E-003    1321.08  <-- SCF
      5  -6.99341801E+002 -1.32303658E+000  -2.98456692E-002    1331.27  <-- SCF
      6  -6.99398299E+002 -1.26202376E+000   5.64981102E-003    1340.91  <-- SCF
      7  -6.99419950E+002 -1.24944910E+000   2.16507389E-003    1351.00  <-- SCF
      8  -6.99366595E+002 -1.25052087E+000  -5.33554123E-003    1360.70  <-- SCF
      9  -6.99398146E+002 -1.23407876E+000   3.15508899E-003    1370.45  <-- SCF
     10  -6.99398812E+002 -1.22632025E+000   6.66287689E-005    1380.33  <-- SCF
     11  -6.99400798E+002 -1.22669889E+000   1.98606936E-004    1389.78  <-- SCF
     12  -6.99402207E+002 -1.22787482E+000   1.40914288E-004    1399.84  <-- SCF
     13  -6.99402371E+002 -1.22751419E+000   1.63634469E-005    1407.75  <-- SCF
     14  -6.99402386E+002 -1.22744720E+000   1.54074863E-006    1415.23  <-- SCF
     15  -6.99402379E+002 -1.22762793E+000  -6.98593035E-007    1422.55  <-- SCF
     16  -6.99402383E+002 -1.22761134E+000   4.02352822E-007    1429.50  <-- SCF
     17  -6.99402384E+002 -1.22756160E+000   5.41352041E-008    1436.86  <-- SCF
------------------------------------------------------------------------ <-- SCF
 
 2*Integrated Spin Density   =   -0.292346E-01
 2*Integrated |Spin Density| =    0.296623E-01
 
Final energy, E             =  -699.3681201966     eV
Final free energy (E-TS)    =  -699.4023838300     eV
(energies not corrected for finite basis set)
 
NB est. 0K energy (E-0.5TS) =  -699.3852520133     eV
 
 
 ******************************** Forces *********************************
 *                                                                       *
 *                      Cartesian components (eV/A)                      *
 * --------------------------------------------------------------------- *
 *              x                    y                    z              *
 *                                                                       *
 * H    1      0.00183             -0.00317              0.00000         *
 * H    2      0.00183              0.00317              0.00000         *
 * H    3     -0.00366              0.00000              0.00000         *
 * H    4     -0.00183              0.00317              0.00000         *
 * H    5     -0.00183             -0.00317              0.00000         *
 * H    6      0.00366              0.00000              0.00000         *
 * C    1      0.00000              0.00000              0.00000         *
 * C    2      0.00000              0.00000              0.00000         *
 * C    3      0.00000              0.00000              0.00000         *
 * C    4      0.00000              0.00000              0.00000         *
 *                                                                       *
 *************************************************************************
 
 ***************** Stress Tensor *****************
 *                                               *
 *          Cartesian components (GPa)           *
 * --------------------------------------------- *
 *             x             y             z     *
 *                                               *
 *  x      0.058630      0.000000      0.000000  *
 *  y      0.000000      0.058630      0.000000  *
 *  z      0.000000      0.000000      1.765282  *
 *                                               *
 *  Pressure:   -0.6275                          *
 *                                               *
 *************************************************
  
 +------------+-------------+-------------+-----------------+ <-- min BFGS
 |    Step    |   lambda    |   F.delta   |    enthalpy     | <-- min BFGS
 +------------+-------------+-------------+-----------------+ <-- min BFGS
 |  previous  |    0.000000 |    0.000375 |     -699.400725 | <-- min BFGS
 | trial step |    1.000000 |    0.000089 |     -699.402538 | <-- min BFGS
 +------------+-------------+-------------+-----------------+ <-- min BFGS
  
 BFGS: finished iteration   4  with enthalpy= -6.99402538E+002 eV
  
 +-----------+-----------------+-----------------+------------+-----+ <-- BFGS
 | Parameter |      value      |    tolerance    |    units   | OK? | <-- BFGS
 +-----------+-----------------+-----------------+------------+-----+ <-- BFGS
 |  dE/ion   |   1.812581E-004 |   5.000000E-006 |         eV | No  | <-- BFGS
 |  |F|max   |   3.662014E-003 |   1.000000E-002 |       eV/A | Yes | <-- BFGS
 |  |dR|max  |   9.989720E-005 |   5.000000E-004 |          A | Yes | <-- BFGS
 |   Smax    |   1.765282E+000 |   2.000000E-002 |        GPa | No  | <-- BFGS
 +-----------+-----------------+-----------------+------------+-----+ <-- BFGS
  

================================================================================
 Starting BFGS iteration          5 ...
================================================================================
 
Writing model to Gph-H.check                                                                                                                                                                                                                                                     
  
 +------------+-------------+-------------+-----------------+ <-- min BFGS
 |    Step    |   lambda    |   F.delta   |    enthalpy     | <-- min BFGS
 +------------+-------------+-------------+-----------------+ <-- min BFGS
 |  previous  |    0.000000 |    0.000121 |     -699.402538 | <-- min BFGS
 +------------+-------------+-------------+-----------------+ <-- min BFGS
  

--------------------------------------------------------------------------------
 BFGS: starting iteration         5 with trial guess (lambda=  1.000000)
--------------------------------------------------------------------------------
 
                           -------------------------------
                                      Unit Cell
                           -------------------------------
        Real Lattice(A)              Reciprocal Lattice(1/A)
   3.9140016  -2.2597499   0.0000000        1.6053099   0.0000000   0.0000000
   0.0000000   4.5194997   0.0000000        0.8026549   1.3902391   0.0000000
   0.0000000   0.0000000   6.7345962        0.0000000   0.0000000   0.9329714
 
                       Lattice parameters(A)       Cell Angles
                    a =    4.519500          alpha =   90.000000
                    b =    4.519500          beta  =   90.000000
                    c =    6.734596          gamma =  120.000000
 
                Current cell volume =  119.130487 A**3
 
                           -------------------------------
                                     Cell Contents
                           -------------------------------
 
            xxxxxxxxxxxxxxxxxxxxxxxxxxxxxxxxxxxxxxxxxxxxxxxxxxxxxxxxxxxx
            x  Element    Atom        Fractional coordinates of atoms  x
            x            Number           u          v          w      x
            x----------------------------------------------------------x
            x   H          1          0.833551   0.166449   0.750000   x
            x   H          2         -0.166449   0.667101   0.750000   x
            x   H          3         -0.667101  -0.833551   0.750000   x
            x   H          4         -0.833551  -0.166449   1.250000   x
            x   H          5          0.166449  -0.667101   1.250000   x
            x   H          6          0.667101   0.833551   1.250000   x
            x   C          1          0.000000   0.000000   0.250000   x
            x   C          2          0.000000   0.000000   0.750000   x
            x   C          3          0.333333   0.666667   0.250000   x
            x   C          4         -0.333333  -0.666667   0.750000   x
            xxxxxxxxxxxxxxxxxxxxxxxxxxxxxxxxxxxxxxxxxxxxxxxxxxxxxxxxxxxx
 
 
------------------------------------------------------------------------ <-- SCF
SCF loop      Energy           Fermi           Energy gain       Timer   <-- SCF
                               energy          per atom          (sec)   <-- SCF
------------------------------------------------------------------------ <-- SCF
Initial  -6.65206212E+002 -2.32027194E+000                      1451.98  <-- SCF
      1  -7.00554164E+002 -2.34232526E+000   3.53479519E+000    1458.05  <-- SCF
      2  -7.00556908E+002 -2.34280580E+000   2.74349845E-004    1465.42  <-- SCF
      3  -6.99675351E+002 -1.83842952E+000  -8.81556266E-002    1474.97  <-- SCF
      4  -6.99638549E+002 -1.49606430E+000  -3.68018371E-003    1484.88  <-- SCF
      5  -6.99344850E+002 -1.32908639E+000  -2.93699412E-002    1494.69  <-- SCF
      6  -6.99398654E+002 -1.26597383E+000   5.38041069E-003    1504.52  <-- SCF
      7  -6.99419238E+002 -1.25352568E+000   2.05834282E-003    1514.19  <-- SCF
      8  -6.99371624E+002 -1.25410459E+000  -4.76137198E-003    1523.92  <-- SCF
      9  -6.99399135E+002 -1.23760675E+000   2.75114464E-003    1533.64  <-- SCF
     10  -6.99400814E+002 -1.23110877E+000   1.67911357E-004    1543.27  <-- SCF
     11  -6.99402075E+002 -1.23121363E+000   1.26020822E-004    1552.80  <-- SCF
     12  -6.99403624E+002 -1.23241968E+000   1.54892075E-004    1562.55  <-- SCF
     13  -6.99403908E+002 -1.23200746E+000   2.84634061E-005    1571.22  <-- SCF
     14  -6.99403903E+002 -1.23201729E+000  -4.71565082E-007    1578.62  <-- SCF
     15  -6.99403905E+002 -1.23220551E+000   1.18612649E-007    1585.81  <-- SCF
------------------------------------------------------------------------ <-- SCF
 
 2*Integrated Spin Density   =    0.227548E-01
 2*Integrated |Spin Density| =    0.231694E-01
 
Final energy, E             =  -699.3701147789     eV
Final free energy (E-TS)    =  -699.4039046449     eV
(energies not corrected for finite basis set)
 
NB est. 0K energy (E-0.5TS) =  -699.3870097119     eV
 
 
 ******************************** Forces *********************************
 *                                                                       *
 *                      Cartesian components (eV/A)                      *
 * --------------------------------------------------------------------- *
 *              x                    y                    z              *
 *                                                                       *
 * H    1      0.00224             -0.00388              0.00000         *
 * H    2      0.00224              0.00388              0.00000         *
 * H    3     -0.00448              0.00000              0.00000         *
 * H    4     -0.00224              0.00388              0.00000         *
 * H    5     -0.00224             -0.00388              0.00000         *
 * H    6      0.00448              0.00000              0.00000         *
 * C    1      0.00000              0.00000              0.00000         *
 * C    2      0.00000              0.00000              0.00000         *
 * C    3      0.00000              0.00000              0.00000         *
 * C    4      0.00000              0.00000              0.00000         *
 *                                                                       *
 *************************************************************************
 
 ***************** Stress Tensor *****************
 *                                               *
 *          Cartesian components (GPa)           *
 * --------------------------------------------- *
 *             x             y             z     *
 *                                               *
 *  x      0.350328      0.000000      0.000000  *
 *  y      0.000000      0.350328      0.000000  *
 *  z      0.000000      0.000000      1.883160  *
 *                                               *
 *  Pressure:   -0.8613                          *
 *                                               *
 *************************************************
  
 +------------+-------------+-------------+-----------------+ <-- min BFGS
 |    Step    |   lambda    |   F.delta   |    enthalpy     | <-- min BFGS
 +------------+-------------+-------------+-----------------+ <-- min BFGS
 |  previous  |    0.000000 |    0.000121 |     -699.402538 | <-- min BFGS
 | trial step |    1.000000 |    0.000097 |     -699.404395 | <-- min BFGS
 +------------+-------------+-------------+-----------------+ <-- min BFGS
  

--------------------------------------------------------------------------------
 BFGS: improving iteration         5 with line minimization (lambda=  5.130968)
--------------------------------------------------------------------------------
 
                           -------------------------------
                                      Unit Cell
                           -------------------------------
        Real Lattice(A)              Reciprocal Lattice(1/A)
   3.9470474  -2.2788289   0.0000000        1.5918697   0.0000000   0.0000000
   0.0000000   4.5576578   0.0000000        0.7959349   1.3785996   0.0000000
   0.0000000   0.0000000   6.6610058        0.0000000   0.0000000   0.9432788
 
                       Lattice parameters(A)       Cell Angles
                    a =    4.557658          alpha =   90.000000
                    b =    4.557658          beta  =   90.000000
                    c =    6.661006          gamma =  120.000000
 
                Current cell volume =  119.826776 A**3
 
                           -------------------------------
                                     Cell Contents
                           -------------------------------
 
            xxxxxxxxxxxxxxxxxxxxxxxxxxxxxxxxxxxxxxxxxxxxxxxxxxxxxxxxxxxx
            x  Element    Atom        Fractional coordinates of atoms  x
            x            Number           u          v          w      x
            x----------------------------------------------------------x
            x   H          1          0.833624   0.166376   0.750000   x
            x   H          2         -0.166376   0.667249   0.750000   x
            x   H          3         -0.667249  -0.833624   0.750000   x
            x   H          4         -0.833624  -0.166376   1.250000   x
            x   H          5          0.166376  -0.667249   1.250000   x
            x   H          6          0.667249   0.833624   1.250000   x
            x   C          1          0.000000   0.000000   0.250000   x
            x   C          2          0.000000   0.000000   0.750000   x
            x   C          3          0.333333   0.666667   0.250000   x
            x   C          4         -0.333333  -0.666667   0.750000   x
            xxxxxxxxxxxxxxxxxxxxxxxxxxxxxxxxxxxxxxxxxxxxxxxxxxxxxxxxxxxx
 
 
------------------------------------------------------------------------ <-- SCF
SCF loop      Energy           Fermi           Energy gain       Timer   <-- SCF
                               energy          per atom          (sec)   <-- SCF
------------------------------------------------------------------------ <-- SCF
Initial  -6.66043771E+002 -2.29768757E+000                      1600.75  <-- SCF
      1  -7.00515480E+002 -2.32148643E+000   3.44717098E+000    1607.44  <-- SCF
      2  -7.00518321E+002 -2.32202119E+000   2.84088342E-004    1614.84  <-- SCF
      3  -6.99688649E+002 -1.84404045E+000  -8.29672200E-002    1624.73  <-- SCF
      4  -6.99617655E+002 -1.52888310E+000  -7.09943922E-003    1634.27  <-- SCF
      5  -6.99348434E+002 -1.34093890E+000  -2.69221169E-002    1643.78  <-- SCF
      6  -6.99399206E+002 -1.28228893E+000   5.07725490E-003    1653.77  <-- SCF
      7  -6.99419771E+002 -1.27159879E+000   2.05643998E-003    1663.67  <-- SCF
      8  -6.99370557E+002 -1.26662648E+000  -4.92131706E-003    1673.45  <-- SCF
      9  -6.99400022E+002 -1.25384709E+000   2.94644128E-003    1683.23  <-- SCF
     10  -6.99401063E+002 -1.24634743E+000   1.04131202E-004    1692.88  <-- SCF
     11  -6.99400038E+002 -1.24458402E+000  -1.02554167E-004    1703.28  <-- SCF
     12  -6.99404148E+002 -1.24577035E+000   4.11025953E-004    1713.11  <-- SCF
[...]
          If this warning persists, you should consider increasing nextra_bands
          and/or reducing smearing_width in the param file.
          Recommend using nextra_bands of 6 to 12.                              
  
      2  -7.03763234E+002  1.24476221E+000   2.77195109E-003   29253.17  <-- SCF
      3  -7.02764855E+002  1.11719880E+000  -9.98379850E-002   29258.09  <-- SCF
 Warning: There are no empty bands for at least one kpoint and spin; this may
          slow the convergence and/or lead to an inaccurate groundstate.
          If this warning persists, you should consider increasing nextra_bands
          and/or reducing smearing_width in the param file.
          Recommend using nextra_bands of 6 to 12.                              
  
      4  -7.02061781E+002  1.48830497E+000  -7.03073479E-002   29263.09  <-- SCF
 Warning: There are no empty bands for at least one kpoint and spin; this may
          slow the convergence and/or lead to an inaccurate groundstate.
          If this warning persists, you should consider increasing nextra_bands
          and/or reducing smearing_width in the param file.
          Recommend using nextra_bands of 6 to 12.                              
  
      5  -7.02064636E+002  1.62200403E+000   2.85484083E-004   29268.03  <-- SCF
 Warning: There are no empty bands for at least one kpoint and spin; this may
          slow the convergence and/or lead to an inaccurate groundstate.
          If this warning persists, you should consider increasing nextra_bands
          and/or reducing smearing_width in the param file.
          Recommend using nextra_bands of 6 to 12.                              
  
      6  -7.02065411E+002  1.67060895E+000   7.75305098E-005   29272.97  <-- SCF
 Warning: There are no empty bands for at least one kpoint and spin; this may
          slow the convergence and/or lead to an inaccurate groundstate.
          If this warning persists, you should consider increasing nextra_bands
          and/or reducing smearing_width in the param file.
          Recommend using nextra_bands of 6 to 12.                              
  
      7  -7.02067065E+002  1.68175753E+000   1.65399914E-004   29277.97  <-- SCF
 Warning: There are no empty bands for at least one kpoint and spin; this may
          slow the convergence and/or lead to an inaccurate groundstate.
          If this warning persists, you should consider increasing nextra_bands
          and/or reducing smearing_width in the param file.
          Recommend using nextra_bands of 6 to 12.                              
  
      8  -7.02067046E+002  1.68196784E+000  -1.87830014E-006   29281.78  <-- SCF
 Warning: There are no empty bands for at least one kpoint and spin; this may
          slow the convergence and/or lead to an inaccurate groundstate.
          If this warning persists, you should consider increasing nextra_bands
          and/or reducing smearing_width in the param file.
          Recommend using nextra_bands of 6 to 12.                              
  
      9  -7.02067045E+002  1.68325199E+000  -1.55744437E-007   29285.70  <-- SCF
 Warning: There are no empty bands for at least one kpoint and spin; this may
          slow the convergence and/or lead to an inaccurate groundstate.
          If this warning persists, you should consider increasing nextra_bands
          and/or reducing smearing_width in the param file.
          Recommend using nextra_bands of 6 to 12.                              
  
     10  -7.02067044E+002  1.68293245E+000  -4.81834923E-008   29289.45  <-- SCF
------------------------------------------------------------------------ <-- SCF
 
 2*Integrated Spin Density   =   -0.901547E-08
 2*Integrated |Spin Density| =    0.925694E-08
 
Final energy, E             =  -702.0476159173     eV
Final free energy (E-TS)    =  -702.0670444144     eV
(energies not corrected for finite basis set)
 
NB est. 0K energy (E-0.5TS) =  -702.0573301658     eV
 
 
 ******************************** Forces *********************************
 *                                                                       *
 *                      Cartesian components (eV/A)                      *
 * --------------------------------------------------------------------- *
 *              x                    y                    z              *
 *                                                                       *
 * H    1     -0.01470              0.02546              0.00000         *
 * H    2     -0.01470             -0.02546              0.00000         *
 * H    3      0.02939              0.00000              0.00000         *
 * H    4      0.01470             -0.02546              0.00000         *
 * H    5      0.01470              0.02546              0.00000         *
 * H    6     -0.02939              0.00000              0.00000         *
 * C    1      0.00000              0.00000              0.00000         *
 * C    2      0.00000              0.00000              0.00000         *
 * C    3      0.00000              0.00000              0.00000         *
 * C    4      0.00000              0.00000              0.00000         *
 *                                                                       *
 *************************************************************************
 
 ***************** Stress Tensor *****************
 *                                               *
 *          Cartesian components (GPa)           *
 * --------------------------------------------- *
 *             x             y             z     *
 *                                               *
 *  x      4.003696      0.000000      0.000000  *
 *  y      0.000000      4.003696      0.000000  *
 *  z      0.000000      0.000000      1.943569  *
 *                                               *
 *  Pressure:   -3.3170                          *
 *                                               *
 *************************************************
  
 +------------+-------------+-------------+-----------------+ <-- min BFGS
 |    Step    |   lambda    |   F.delta   |    enthalpy     | <-- min BFGS
 +------------+-------------+-------------+-----------------+ <-- min BFGS
 |  previous  |    0.000000 |    0.000117 |     -702.063658 | <-- min BFGS
 | trial step |    1.000000 |    0.000113 |     -702.067684 | <-- min BFGS
 +------------+-------------+-------------+-----------------+ <-- min BFGS
  

--------------------------------------------------------------------------------
 BFGS: improving iteration       100 with line minimization (lambda= 34.003502)
--------------------------------------------------------------------------------
 
                           -------------------------------
                                      Unit Cell
                           -------------------------------
        Real Lattice(A)              Reciprocal Lattice(1/A)
   3.9847634  -2.3006042   0.0000000        1.5768026   0.0000000   0.0000000
   0.0000000   4.6012085   0.0000000        0.7884013   1.3655511   0.0000000
   0.0000000   0.0000000   3.6009033        0.0000000   0.0000000   1.7448914
 
                       Lattice parameters(A)       Cell Angles
                    a =    4.601208          alpha =   90.000000
                    b =    4.601208          beta  =   90.000000
                    c =    3.600903          gamma =  120.000000
 
                Current cell volume =   66.021580 A**3
 
                           -------------------------------
                                     Cell Contents
                           -------------------------------
 
            xxxxxxxxxxxxxxxxxxxxxxxxxxxxxxxxxxxxxxxxxxxxxxxxxxxxxxxxxxxx
            x  Element    Atom        Fractional coordinates of atoms  x
            x            Number           u          v          w      x
            x----------------------------------------------------------x
            x   H          1          0.848899   0.151101   0.750000   x
            x   H          2         -0.151101   0.697797   0.750000   x
            x   H          3         -0.697797  -0.848899   0.750000   x
            x   H          4         -0.848899  -0.151101   1.250000   x
            x   H          5          0.151101  -0.697797   1.250000   x
            x   H          6          0.697797   0.848899   1.250000   x
            x   C          1          0.000000   0.000000   0.250000   x
            x   C          2          0.000000   0.000000   0.750000   x
            x   C          3          0.333333   0.666667   0.250000   x
            x   C          4         -0.333333  -0.666667   0.750000   x
            xxxxxxxxxxxxxxxxxxxxxxxxxxxxxxxxxxxxxxxxxxxxxxxxxxxxxxxxxxxx
 
 
------------------------------------------------------------------------ <-- SCF
SCF loop      Energy           Fermi           Energy gain       Timer   <-- SCF
                               energy          per atom          (sec)   <-- SCF
------------------------------------------------------------------------ <-- SCF
Initial  -6.48329611E+002  1.80822053E+000                     29297.84  <-- SCF
 Warning: There are no empty bands for at least one kpoint and spin; this may
          slow the convergence and/or lead to an inaccurate groundstate.
          If this warning persists, you should consider increasing nextra_bands
          and/or reducing smearing_width in the param file.
          Recommend using nextra_bands of 6 to 12.                              
  
      1  -7.03772427E+002  1.77308031E+000   5.54428165E+000   29301.39  <-- SCF
 Warning: There are no empty bands for at least one kpoint and spin; this may
          slow the convergence and/or lead to an inaccurate groundstate.
          If this warning persists, you should consider increasing nextra_bands
          and/or reducing smearing_width in the param file.
          Recommend using nextra_bands of 6 to 12.                              
  
      2  -7.03780435E+002  1.77247576E+000   8.00827556E-004   29305.27  <-- SCF
      3  -7.02834172E+002  1.72897667E+000  -9.46263781E-002   29310.42  <-- SCF
 Warning: There are no empty bands for at least one kpoint and spin; this may
          slow the convergence and/or lead to an inaccurate groundstate.
          If this warning persists, you should consider increasing nextra_bands
          and/or reducing smearing_width in the param file.
          Recommend using nextra_bands of 6 to 12.                              
  
      4  -7.02142036E+002  2.06272367E+000  -6.92135110E-002   29315.48  <-- SCF
      5  -7.02142593E+002  2.24270691E+000   5.56481284E-005   29320.67  <-- SCF
      6  -7.02144216E+002  2.27377493E+000   1.62266268E-004   29325.80  <-- SCF
      7  -7.02145630E+002  2.28099530E+000   1.41453454E-004   29330.84  <-- SCF
      8  -7.02145482E+002  2.28173601E+000  -1.47900895E-005   29335.77  <-- SCF
      9  -7.02145479E+002  2.28279728E+000  -2.88155915E-007   29340.11  <-- SCF
     10  -7.02145477E+002  2.28261313E+000  -2.62427541E-007   29343.88  <-- SCF
     11  -7.02145477E+002  2.28264161E+000  -1.94818924E-008   29347.66  <-- SCF
------------------------------------------------------------------------ <-- SCF
 
 2*Integrated Spin Density   =   -0.125150E-07
 2*Integrated |Spin Density| =    0.125150E-07
 
Final energy, E             =  -702.1171406280     eV
Final free energy (E-TS)    =  -702.1454765430     eV
(energies not corrected for finite basis set)
 
NB est. 0K energy (E-0.5TS) =  -702.1313085855     eV
 
 
 ******************************** Forces *********************************
 *                                                                       *
 *                      Cartesian components (eV/A)                      *
 * --------------------------------------------------------------------- *
 *              x                    y                    z              *
 *                                                                       *
 * H    1     -0.20047              0.34722              0.00000         *
 * H    2     -0.20047             -0.34722              0.00000         *
 * H    3      0.40094              0.00000              0.00000         *
 * H    4      0.20047             -0.34722              0.00000         *
 * H    5      0.20047              0.34722              0.00000         *
 * H    6     -0.40094              0.00000              0.00000         *
 * C    1      0.00000              0.00000              0.00000         *
 * C    2      0.00000              0.00000              0.00000         *
 * C    3      0.00000              0.00000              0.00000         *
 * C    4      0.00000              0.00000              0.00000         *
 *                                                                       *
 *************************************************************************
 
 ***************** Stress Tensor *****************
 *                                               *
 *          Cartesian components (GPa)           *
 * --------------------------------------------- *
 *             x             y             z     *
 *                                               *
 *  x     -2.588609      0.000000      0.000000  *
 *  y      0.000000     -2.588609      0.000000  *
 *  z      0.000000      0.000000      0.690531  *
 *                                               *
 *  Pressure:    1.4956                          *
 *                                               *
 *************************************************
  
 +------------+-------------+-------------+-----------------+ <-- min BFGS
 |    Step    |   lambda    |   F.delta   |    enthalpy     | <-- min BFGS
 +------------+-------------+-------------+-----------------+ <-- min BFGS
 |  previous  |    0.000000 |    0.000117 |     -702.063658 | <-- min BFGS
 | trial step |    1.000000 |    0.000113 |     -702.067684 | <-- min BFGS
 |  line step |   34.003502 |    0.000000 |     -702.146865 | <-- min BFGS
 +------------+-------------+-------------+-----------------+ <-- min BFGS
  
 BFGS: finished iteration 100  with enthalpy= -7.02146865E+002 eV
  
 +-----------+-----------------+-----------------+------------+-----+ <-- BFGS
 | Parameter |      value      |    tolerance    |    units   | OK? | <-- BFGS
 +-----------+-----------------+-----------------+------------+-----+ <-- BFGS
 |  dE/ion   |   8.320727E-003 |   5.000000E-006 |         eV | No  | <-- BFGS
 |  |F|max   |   4.009387E-001 |   1.000000E-002 |       eV/A | No  | <-- BFGS
 |  |dR|max  |   1.209534E-002 |   5.000000E-004 |          A | No  | <-- BFGS
 |   Smax    |   2.588609E+000 |   2.000000E-002 |        GPa | No  | <-- BFGS
 +-----------+-----------------+-----------------+------------+-----+ <-- BFGS
  
 BFGS: Geometry optimization failed to converge after         100 steps.

================================================================================
 BFGS: Final Configuration:
================================================================================
 
                           -------------------------------
                                      Unit Cell
                           -------------------------------
        Real Lattice(A)              Reciprocal Lattice(1/A)
   3.9847634  -2.3006042   0.0000000        1.5768026   0.0000000   0.0000000
   0.0000000   4.6012085   0.0000000        0.7884013   1.3655511   0.0000000
   0.0000000   0.0000000   3.6009033        0.0000000   0.0000000   1.7448914
 
                       Lattice parameters(A)       Cell Angles
                    a =    4.601208          alpha =   90.000000
                    b =    4.601208          beta  =   90.000000
                    c =    3.600903          gamma =  120.000000
 
                Current cell volume =   66.021580 A**3
 
                           -------------------------------
                                     Cell Contents
                           -------------------------------
 
            xxxxxxxxxxxxxxxxxxxxxxxxxxxxxxxxxxxxxxxxxxxxxxxxxxxxxxxxxxxx
            x  Element    Atom        Fractional coordinates of atoms  x
            x            Number           u          v          w      x
            x----------------------------------------------------------x
            x   H          1          0.848899   0.151101   0.750000   x
            x   H          2         -0.151101   0.697797   0.750000   x
            x   H          3         -0.697797  -0.848899   0.750000   x
            x   H          4         -0.848899  -0.151101   1.250000   x
            x   H          5          0.151101  -0.697797   1.250000   x
            x   H          6          0.697797   0.848899   1.250000   x
            x   C          1          0.000000   0.000000   0.250000   x
            x   C          2          0.000000   0.000000   0.750000   x
            x   C          3          0.333333   0.666667   0.250000   x
            x   C          4         -0.333333  -0.666667   0.750000   x
            xxxxxxxxxxxxxxxxxxxxxxxxxxxxxxxxxxxxxxxxxxxxxxxxxxxxxxxxxxxx
 
 
 BFGS: Final Enthalpy     = -7.02146865E+002 eV
 BFGS: Final bulk modulus =  1.81770230E+003 GPa
 
 ************************** Symmetrised Forces ***************************
 *                                                                       *
 *                      Cartesian components (eV/A)                      *
 * --------------------------------------------------------------------- *
 *              x                    y                    z              *
 *                                                                       *
 * H    1     -0.20047              0.34722              0.00000         *
 * H    2     -0.20047             -0.34722              0.00000         *
 * H    3      0.40094              0.00000              0.00000         *
 * H    4      0.20047             -0.34722              0.00000         *
 * H    5      0.20047              0.34722              0.00000         *
 * H    6     -0.40094              0.00000              0.00000         *
 * C    1      0.00000              0.00000              0.00000         *
 * C    2      0.00000              0.00000              0.00000         *
 * C    3      0.00000              0.00000              0.00000         *
 * C    4      0.00000              0.00000              0.00000         *
 *                                                                       *
 *************************************************************************
 
 *********** Symmetrised Stress Tensor ***********
 *                                               *
 *          Cartesian components (GPa)           *
 * --------------------------------------------- *
 *             x             y             z     *
 *                                               *
 *  x     -2.588609      0.000000      0.000000  *
 *  y      0.000000     -2.588609      0.000000  *
 *  z      0.000000      0.000000      0.690531  *
 *                                               *
 *  Pressure:    1.4956                          *
 *                                               *
 *************************************************
 
Writing model to Gph-H.check                                                                                                                                                                                                                                                     
Initialisation time =      1.06
Calculation time    =  29352.59
Finalisation time   =      0.20
Total time          =  29353.86
