 +-------------------------------------------------+
 |                                                 |
 |      CCC   AA    SSS  TTTTT  EEEEE  PPPP        |
 |     C     A  A  S       T    E      P   P       |
 |     C     AAAA   SS     T    EEE    PPPP        |
 |     C     A  A     S    T    E      P           |
 |      CCC  A  A  SSS     T    EEEEE  P           |
 |                                                 |
 +-------------------------------------------------+
 |                                                 |
 | Welcome to Materials Studio CASTEP version 3.2  |
 | Ab Initio Total Energy Program                  |
 |                                                 |
 | Authors:                                        |
 | M. Segall, M. Probert, C. Pickard, P. Hasnip    |
 | S. Clark, K. Refson, M. Payne                   |
 |                                                 |
 | Contributors:                                   |
 | P. Lindan, P. Haynes, J. White, V. Milman       |
 | N. Govind, M. Gibson, P. Tulip, V. Cocula       |
 | B. Montanari, D. Quigley                        |
 |                                                 |
 | Copyright (c) 2000,2001,2002,2003,2004          |
 |                                                 |
 | Please cite                                     |
 |                                                 |
 |    "First-principles simulation: ideas,         |
 |    illustrations and the CASTEP code",          |
 |                                                 |
 | J. Phys.: Cond. Matt. 14(11) pp.2717-2743 (2002)|
 |                                                 |
 | M. D. Segall, P. J. D. Lindan, M. J. Probert,   |
 | C. J. Pickard, P. J. Hasnip, S. J. Clark,       |
 | M. C. Payne                                     |
 |                                                 |
 |       in all publications arising from          |
 |              your use of CASTEP                 |
 |                                                 |
 +-------------------------------------------------+
 
License checkout of MS_castep successful
Number of licenses checked out     1
 
 Warning in parameters_read: number of up-spin electrons is equal to the
                             number of down-spins and spin_polarized=true
                             - consider setting spin_polarized=false.
 
 Pseudo atomic calculation performed for H 1s1
 
 Converged in 18 iterations to a total energy of -12.460019 eV
 
 
 Pseudo atomic calculation performed for C 2s2 2p2
 
 Converged in 22 iterations to a total energy of -146.419565 eV
 
Calculation parallelised over    1 nodes.
K-points are distributed over    1 groups, each containing    1 nodes.

 ************************************ Title ************************************
 CASTEP calculation from Materials Studio

 ***************************** General Parameters ******************************
  
 output verbosity                               : normal  (1)
 write checkpoint data to                       : C4H3.check
 type of calculation                            : geometry optimization
 stress calculation                             : off
 density difference calculation                 : off
 unlimited duration calculation
 timing information                             : on
  
 output         length unit                     : A
 output           mass unit                     : amu
 output           time unit                     : ps
 output         charge unit                     : e
 output         energy unit                     : eV
 output          force unit                     : eV/A
 output       velocity unit                     : A/ps
 output       pressure unit                     : GPa
 output     inv_length unit                     : 1/A
 output      frequency unit                     : cm-1
 output force constant unit                     : eV/A**2
 output         volume unit                     : A**3
  
 wavefunctions paging                           : none
 random number generator seed                   : randomised (145436992)
 data distribution                              : optimal for this architecture
 optimization strategy                          : balance speed and memory

 *********************** Exchange-Correlation Parameters ***********************
  
 using functional                               : Perdew Burke Ernzerhof

 ************************* Pseudopotential Parameters **************************
  
 pseudopotential representation                 : reciprocal space
 <beta|phi> representation                      : reciprocal space

 **************************** Basis Set Parameters *****************************
  
 plane wave basis set cut-off                   :   310.0000   eV
 size of standard grid                          :     1.7500
 size of fine grid                              :    15.7855   1/A
 finite basis set correction                    : none

 **************************** Electronic Parameters ****************************
  
 number of  electrons                           :         38
 net charge of system                           :          0
 net spin   of system                           :          0
 number of  up  spins                           :         19
 number of down spins                           :         19
 treating system as spin-polarized
 number of bands                                :         23

 ********************* Electronic Minimization Parameters **********************
  
 Method: Treating system as metallic with density mixing treatment of electrons,
         and number of  SD  steps               :          1
         and number of  CG  steps               :          4
  
 total energy / atom convergence tol.           : 0.5000E-06   eV
 eigen-energy convergence tolerance             : 0.3043E-06   eV
 convergence tolerance window                   :          3   cycles
 max. number of SCF cycles                      :        100
 number of fixed-spin iterations                :          6
 smearing scheme                                : Gaussian
 smearing width                                 : 0.1000       eV
 Fermi energy convergence tolerance             : 0.3043E-07   eV

 ************************** Density Mixing Parameters **************************
  
 density-mixing scheme                          : Pulay
 max. length of mixing history                  :         20
 charge density mixing amplitude                : 0.5000    
   spin density mixing amplitude                :  2.000    
 cut-off energy for mixing                      :  310.0       eV
 charge density mixing g-vector                 :  1.500       1/A
   spin density mixing g-vector                 :  1.500       1/A

 ********************** Geometry Optimization Parameters ***********************
  
 optimization method                            : BFGS
 variable cell method                           : fixed basis quality
 max. number of steps                           :        100
 estimated bulk modulus                         :  500.0       GPa
 estimated <frequency>                          :  1668.       cm-1
 total energy convergence tolerance             : 0.5000E-05   eV/atom
        max ionic |force| tolerance             : 0.1000E-01   eV/A
 max ionic |displacement| tolerance             : 0.5000E-03   A
   max |stress component| tolerance             : 0.2000E-01   GPa
 convergence tolerance window                   :          2   steps
 backup results every                           :          5   steps

 *******************************************************************************
  
 
                           -------------------------------
                                      Unit Cell
                           -------------------------------
        Real Lattice(A)                      Reciprocal Lattice(1/A)
   4.4000000   0.0000000   0.0000000        1.4279967   0.0000000   0.0000000
   0.0000000   2.5400000   0.0000000        0.0000000   2.4736950   0.0000000
   0.0000000   0.0000000  20.0000000        0.0000000   0.0000000   0.3141593
 
                       Lattice parameters(A)       Cell Angles
                    a =    4.400000          alpha =   90.000000
                    b =    2.540000          beta  =   90.000000
                    c =   20.000000          gamma =   90.000000
 
                       Current cell volume =  223.520000       A**3
 
                           -------------------------------
                                     Cell Contents
                           -------------------------------
                         Total number of ions in cell =   14
                      Total number of species in cell =    2
                        Max number of any one species =    8
 
            xxxxxxxxxxxxxxxxxxxxxxxxxxxxxxxxxxxxxxxxxxxxxxxxxxxxxxxxxxxx
            x  Element    Atom        Fractional coordinates of atoms  x
            x            Number           u          v          w      x
            x----------------------------------------------------------x
            x   H          1          0.166368   0.500011   0.372036   x
            x   H          2          0.666654   0.000011   0.372001   x
            x   H          3          0.832123   0.500011   0.639600   x
            x   H          4          1.331961   0.000012   0.639591   x
            x   H          5          0.495144   0.500014   0.505869   x
            x   H          6          0.993681   0.000014   0.505887   x
            x   C          1         -0.001074   0.000015   0.451132   x
            x   C          2          0.499026   0.500012   0.451027   x
            x   C          3          0.165744   0.500013   0.427152   x
            x   C          4          0.665808   0.000013   0.427124   x
            x   C          5          0.831592   0.500013   0.584447   x
            x   C          6          0.498319   0.500014   0.560550   x
            x   C          7          0.998306   0.000014   0.560563   x
            x   C          8          1.331440   0.000016   0.584433   x
            xxxxxxxxxxxxxxxxxxxxxxxxxxxxxxxxxxxxxxxxxxxxxxxxxxxxxxxxxxxx
 
 
                         No user defined ionic velocities
 
                           -------------------------------
                                   Details of Species
                           -------------------------------
 
                               Mass of species in AMU
                                    H      1.0080000
                                    C     12.0109997
 
                          Electric Quadrupole Moment (Barn)
                                    H      0.0028600 Isotope  2
                                    C      1.0000000 No Isotope Defined
 
                          Files used for pseudopotentials:
                                    H H_00.usp
                                    C C_00.usp
 
                           -------------------------------
                              k-Points For BZ Sampling
                           -------------------------------
                         Number of kpoints used =          30
 
             +++++++++++++++++++++++++++++++++++++++++++++++++++++++
             +  Number       Fractional coordinates        Weight  +
             +-----------------------------------------------------+
             +     1   0.416667   0.450000   0.000000   0.0333333  +
             +     2   0.416667   0.350000   0.000000   0.0333333  +
             +     3   0.416667   0.250000   0.000000   0.0333333  +
             +     4   0.416667   0.150000   0.000000   0.0333333  +
             +     5   0.416667   0.050000   0.000000   0.0333333  +
             +     6   0.416667  -0.050000   0.000000   0.0333333  +
             +     7   0.416667  -0.150000   0.000000   0.0333333  +
             +     8   0.416667  -0.250000   0.000000   0.0333333  +
             +     9   0.416667  -0.350000   0.000000   0.0333333  +
             +    10   0.416667  -0.450000   0.000000   0.0333333  +
             +    11   0.250000   0.450000   0.000000   0.0333333  +
             +    12   0.250000   0.350000   0.000000   0.0333333  +
             +    13   0.250000   0.250000   0.000000   0.0333333  +
             +    14   0.250000   0.150000   0.000000   0.0333333  +
             +    15   0.250000   0.050000   0.000000   0.0333333  +
             +    16   0.250000  -0.050000   0.000000   0.0333333  +
             +    17   0.250000  -0.150000   0.000000   0.0333333  +
             +    18   0.250000  -0.250000   0.000000   0.0333333  +
             +    19   0.250000  -0.350000   0.000000   0.0333333  +
             +    20   0.250000  -0.450000   0.000000   0.0333333  +
             +    21   0.083333   0.450000   0.000000   0.0333333  +
             +    22   0.083333   0.350000   0.000000   0.0333333  +
             +    23   0.083333   0.250000   0.000000   0.0333333  +
             +    24   0.083333   0.150000   0.000000   0.0333333  +
             +    25   0.083333   0.050000   0.000000   0.0333333  +
             +    26   0.083333  -0.050000   0.000000   0.0333333  +
             +    27   0.083333  -0.150000   0.000000   0.0333333  +
             +    28   0.083333  -0.250000   0.000000   0.0333333  +
             +    29   0.083333  -0.350000   0.000000   0.0333333  +
             +    30   0.083333  -0.450000   0.000000   0.0333333  +
             +++++++++++++++++++++++++++++++++++++++++++++++++++++++
 
                           -------------------------------
                               Symmetry and Constraints
                           -------------------------------
 
         There are no symmetry operations specified or generated for this cell
 
                        Centre of mass is NOT constrained
       There are no ionic constraints specified or generated for this cell
 
                         Number of cell constraints= 6
                         Cell constraints are:  0 0 0 0 0 0
 
                         External pressure/stress (GPa)
                          0.00000   0.00000   0.00000
                                    0.00000   0.00000
                                              0.00000
------------------------------------------------------------------------ <-- SCF
SCF loop      Energy           Fermi           Energy gain       Timer   <-- SCF
                               energy          per atom          (sec)   <-- SCF
------------------------------------------------------------------------ <-- SCF
Initial  -1.42263242E+002  5.59928625E+001                        53.92  <-- SCF
      1  -1.11805699E+003  2.82620278E+000   6.96995534E+001     186.47  <-- SCF
      2  -1.33215223E+003 -3.60099203E+000   1.52925171E+001     297.53  <-- SCF
      3  -1.33759031E+003 -2.28725896E+000   3.88434314E-001     452.61  <-- SCF
      4  -1.33600022E+003 -5.83813070E-001  -1.13577514E-001     598.75  <-- SCF
      5  -1.33603993E+003 -7.11166248E-001   2.83609205E-003     746.00  <-- SCF
      6  -1.33603490E+003 -6.69352408E-001  -3.59419525E-004     907.17  <-- SCF
      7  -1.33602285E+003 -5.38855149E-001  -8.60189657E-004    1053.89  <-- SCF
      8  -1.33601562E+003 -4.82013322E-001  -5.16429199E-004    1201.11  <-- SCF
      9  -1.33596812E+003 -2.94543935E-001  -3.39288947E-003    1344.03  <-- SCF
     10  -1.33574394E+003  4.38579179E-002  -1.60133051E-002    1488.16  <-- SCF
     11  -1.33600039E+003  1.39893610E-002   1.83182940E-002    1630.17  <-- SCF
     12  -1.33600628E+003  6.71792986E-002   4.20228583E-004    1775.23  <-- SCF
     13  -1.33599582E+003  1.77044205E-001  -7.47079442E-004    1917.61  <-- SCF
     14  -1.33596980E+003  3.69706000E-001  -1.85831842E-003    2060.59  <-- SCF
     15  -1.33595710E+003  4.79781019E-001  -9.07184060E-004    2205.56  <-- SCF
     16  -1.33595380E+003  6.71818501E-001  -2.35865428E-004    2347.58  <-- SCF
     17  -1.33595368E+003  7.19622742E-001  -8.29610866E-006    2487.30  <-- SCF
     18  -1.33595881E+003  7.27946997E-001   3.66098824E-004    2623.67  <-- SCF
     19  -1.33595812E+003  8.32644309E-001  -4.91991256E-005    2767.33  <-- SCF
     20  -1.33595896E+003  9.12756059E-001   6.00005832E-005    2909.92  <-- SCF
     21  -1.33596013E+003  9.67939613E-001   8.33495336E-005    3049.36  <-- SCF
     22  -1.33596278E+003  9.94367087E-001   1.89790347E-004    3186.48  <-- SCF
     23  -1.33596490E+003  1.00833689E+000   1.51122081E-004    3310.94  <-- SCF
     24  -1.33596696E+003  1.01647791E+000   1.47293349E-004    3438.25  <-- SCF
     25  -1.33596743E+003  1.01461737E+000   3.35431909E-005    3545.81  <-- SCF
     26  -1.33596760E+003  1.01311667E+000   1.22881008E-005    3655.75  <-- SCF
     27  -1.33596765E+003  1.01451815E+000   3.45090141E-006    3765.61  <-- SCF
     28  -1.33596769E+003  1.01530147E+000   2.55617165E-006    3874.62  <-- SCF
     29  -1.33596769E+003  1.01632156E+000   3.88586100E-007    3980.09  <-- SCF
     30  -1.33596769E+003  1.01604990E+000  -1.94437198E-008    4087.47  <-- SCF
------------------------------------------------------------------------ <-- SCF
 
 2*Integrated Spin Density   =    0.446773E-03
 2*Integrated |Spin Density| =     1.81799    
 
Final energy, E             =  -1335.963998912     eV
Final free energy (E-TS)    =  -1335.967692386     eV
(energies not corrected for finite basis set)
 
NB est. 0K energy (E-0.5TS) =  -1335.965845649     eV
 
 
 ******************************** Forces *********************************
 *                                                                       *
 *                      Cartesian components (eV/A)                      *
 * --------------------------------------------------------------------- *
 *              x                    y                    z              *
 *                                                                       *
 * H    1      0.00440              0.00001             -0.16313         *
 * H    2      0.01210              0.00000             -0.15843         *
 * H    3     -0.01982              0.00001              0.14073         *
 * H    4     -0.02012              0.00002              0.13343         *
 * H    5      0.01164             -0.00001             -0.06063         *
 * H    6      0.00888             -0.00003             -0.04425         *
 * C    1      0.00098             -0.00011             -8.93684         *
 * C    2     -0.02283             -0.00004             -8.87505         *
 * C    3     -0.01916              0.00005              1.88687         *
 * C    4     -0.02891              0.00010              1.89385         *
 * C    5     -0.01839              0.00000             -1.69170         *
 * C    6      0.04540              0.00005              8.74999         *
 * C    7      0.05829              0.00000              8.77928         *
 * C    8     -0.01247             -0.00005             -1.65411         *
 *                                                                       *
 *************************************************************************
 BFGS: finished iteration   0  with enthalpy= -1.33596769E+003 eV
  
 +-----------+-----------------+-----------------+------------+-----+ <-- BFGS
 | Parameter |      value      |    tolerance    |    units   | OK? | <-- BFGS
 +-----------+-----------------+-----------------+------------+-----+ <-- BFGS
 |  dE/ion   |   0.000000E+000 |   5.000000E-006 |         eV | No  | <-- BFGS
 |  |F|max   |   8.936844E+000 |   1.000000E-002 |       eV/A | No  | <-- BFGS
 |  |dR|max  |   0.000000E+000 |   5.000000E-004 |          A | Yes | <-- BFGS
 +-----------+-----------------+-----------------+------------+-----+ <-- BFGS
  

================================================================================
 Starting BFGS iteration          1 ...
================================================================================
  
 +------------+-------------+-------------+-----------------+ <-- min BFGS
 |    Step    |   lambda    |   F.delta   |    enthalpy     | <-- min BFGS
 +------------+-------------+-------------+-----------------+ <-- min BFGS
 |  previous  |    0.000000 |    0.160105 |    -1335.967692 | <-- min BFGS
 +------------+-------------+-------------+-----------------+ <-- min BFGS
  

--------------------------------------------------------------------------------
 BFGS: starting iteration         1 with trial guess (lambda=  1.000000)
--------------------------------------------------------------------------------
 
                           -------------------------------
                                     Cell Contents
                           -------------------------------
 
            xxxxxxxxxxxxxxxxxxxxxxxxxxxxxxxxxxxxxxxxxxxxxxxxxxxxxxxxxxxx
            x  Element    Atom        Fractional coordinates of atoms  x
            x            Number           u          v          w      x
            x----------------------------------------------------------x
            x   H          1          0.166381   0.500011   0.371926   x
            x   H          2          0.666691   0.000011   0.371895   x
            x   H          3          0.832063   0.500011   0.639694   x
            x   H          4          1.331899   0.000012   0.639680   x
            x   H          5          0.495180   0.500014   0.505829   x
            x   H          6          0.993708   0.000014   0.505858   x
            x   C          1         -0.001071   0.000014   0.445145   x
            x   C          2          0.498956   0.500012   0.445081   x
            x   C          3          0.165685   0.500013   0.428416   x
            x   C          4          0.665720   0.000013   0.428392   x
            x   C          5          0.831536   0.500013   0.583314   x
            x   C          6          0.498457   0.500014   0.566413   x
            x   C          7          0.998483   0.000014   0.566445   x
            x   C          8          1.331402   0.000016   0.583325   x
            xxxxxxxxxxxxxxxxxxxxxxxxxxxxxxxxxxxxxxxxxxxxxxxxxxxxxxxxxxxx
 
 
------------------------------------------------------------------------ <-- SCF
SCF loop      Energy           Fermi           Energy gain       Timer   <-- SCF
                               energy          per atom          (sec)   <-- SCF
------------------------------------------------------------------------ <-- SCF
Initial  -1.32619567E+003  3.73434186E+000                      4224.58  <-- SCF
      1  -1.35973475E+003  2.96715315E+000   2.39564879E+000    4323.78  <-- SCF
      2  -1.36045858E+003  2.85503559E+000   5.17018434E-002    4437.02  <-- SCF
 Warning: There are no empty bands for at least one kpoint and spin; this may
          slow the convergence and/or lead to an inaccurate groundstate.
          If this warning persists, you should consider increasing nextra_bands
          and/or reducing smearing_width in the param file.
          Recommend using nextra_bands of 7 to 16.                              
  
      3  -1.34027672E+003  2.31202165E+000  -1.44156164E+000    4582.78  <-- SCF
      4  -1.33818053E+003  1.74303505E+000  -1.49727634E-001    4728.08  <-- SCF
      5  -1.33822391E+003  1.74905106E+000   3.09849247E-003    4870.16  <-- SCF
      6  -1.33827943E+003  1.70899635E+000   3.96579001E-003    5012.00  <-- SCF
      7  -1.33828545E+003  1.64912774E+000   4.29868782E-004    5155.55  <-- SCF
      8  -1.33829048E+003  1.57258049E+000   3.59620629E-004    5295.95  <-- SCF
      9  -1.33829459E+003  1.52056648E+000   2.93656438E-004    5433.12  <-- SCF
     10  -1.33829039E+003  1.43738129E+000  -3.00118187E-004    5572.86  <-- SCF
     11  -1.33829023E+003  1.35234837E+000  -1.13763841E-005    5713.34  <-- SCF
     12  -1.33828628E+003  1.26131352E+000  -2.82344123E-004    5852.73  <-- SCF
     13  -1.33827880E+003  1.12968310E+000  -5.34348675E-004    5993.70  <-- SCF
     14  -1.33827581E+003  1.04614220E+000  -2.13118016E-004    6132.00  <-- SCF
     15  -1.33827362E+003  9.81198942E-001  -1.56951636E-004    6268.66  <-- SCF
     16  -1.33827040E+003  9.14110979E-001  -2.30184429E-004    6394.81  <-- SCF
     17  -1.33826461E+003  7.88501382E-001  -4.13154350E-004    6534.14  <-- SCF
     18  -1.33826520E+003  7.66471986E-001   4.23701264E-005    6671.11  <-- SCF
     19  -1.33826714E+003  7.82651355E-001   1.38427571E-004    6805.25  <-- SCF
     20  -1.33826787E+003  7.69259269E-001   5.19001683E-005    6925.34  <-- SCF
     21  -1.33826830E+003  7.37754236E-001   3.07904521E-005    7053.52  <-- SCF
     22  -1.33826857E+003  7.28923092E-001   1.90533026E-005    7162.64  <-- SCF
     23  -1.33826871E+003  7.34422693E-001   1.03380283E-005    7266.64  <-- SCF
     24  -1.33826880E+003  7.39981499E-001   6.02617976E-006    7376.25  <-- SCF
     25  -1.33826882E+003  7.39467210E-001   1.46354399E-006    7482.80  <-- SCF
     26  -1.33826883E+003  7.39093581E-001   6.76761694E-007    7587.56  <-- SCF
     27  -1.33826883E+003  7.38835017E-001   2.21709185E-007    7691.86  <-- SCF
     28  -1.33826883E+003  7.38854479E-001   8.16270722E-008    7793.77  <-- SCF
------------------------------------------------------------------------ <-- SCF
 
 2*Integrated Spin Density   =    0.345445E-03
 2*Integrated |Spin Density| =    0.687986    
 
Final energy, E             =  -1338.264396032     eV
Final free energy (E-TS)    =  -1338.268829798     eV
(energies not corrected for finite basis set)
 
NB est. 0K energy (E-0.5TS) =  -1338.266612915     eV
 
 
 ******************************** Forces *********************************
 *                                                                       *
 *                      Cartesian components (eV/A)                      *
 * --------------------------------------------------------------------- *
 *              x                    y                    z              *
 *                                                                       *
 * H    1      0.00823             -0.00001              0.14544         *
 * H    2      0.01000             -0.00003              0.15029         *
 * H    3     -0.01879             -0.00001             -0.18349         *
 * H    4     -0.01474              0.00000             -0.17728         *
 * H    5      0.09281             -0.00004             -0.01368         *
 * H    6      0.12568             -0.00005             -0.02554         *
 * C    1     -0.08078              0.00009             -1.49623         *
 * C    2     -0.05147              0.00002             -1.54883         *
 * C    3     -0.00554             -0.00002             -1.75149         *
 * C    4     -0.00586             -0.00007             -1.79919         *
 * C    5      0.00297              0.00002              1.70255         *
 * C    6     -0.01570              0.00004              1.66349         *
 * C    7     -0.03092             -0.00001              1.66854         *
 * C    8     -0.01588              0.00006              1.66542         *
 *                                                                       *
 *************************************************************************
  
 +------------+-------------+-------------+-----------------+ <-- min BFGS
 |    Step    |   lambda    |   F.delta   |    enthalpy     | <-- min BFGS
 +------------+-------------+-------------+-----------------+ <-- min BFGS
 |  previous  |    0.000000 |    0.160105 |    -1335.967692 | <-- min BFGS
 | trial step |    1.000000 |    0.021609 |    -1338.268830 | <-- min BFGS
 +------------+-------------+-------------+-----------------+ <-- min BFGS
  
 BFGS: finished iteration   1  with enthalpy= -1.33826883E+003 eV
  
 +-----------+-----------------+-----------------+------------+-----+ <-- BFGS
 | Parameter |      value      |    tolerance    |    units   | OK? | <-- BFGS
 +-----------+-----------------+-----------------+------------+-----+ <-- BFGS
 |  dE/ion   |   1.643670E-001 |   5.000000E-006 |         eV | No  | <-- BFGS
 |  |F|max   |   1.799200E+000 |   1.000000E-002 |       eV/A | No  | <-- BFGS
 |  |dR|max  |   1.197554E-001 |   5.000000E-004 |          A | No  | <-- BFGS
 +-----------+-----------------+-----------------+------------+-----+ <-- BFGS
  

================================================================================
 Starting BFGS iteration          2 ...
================================================================================
  
 +------------+-------------+-------------+-----------------+ <-- min BFGS
 |    Step    |   lambda    |   F.delta   |    enthalpy     | <-- min BFGS
 +------------+-------------+-------------+-----------------+ <-- min BFGS
 |  previous  |    0.000000 |    0.014157 |    -1338.268830 | <-- min BFGS
 +------------+-------------+-------------+-----------------+ <-- min BFGS
  

--------------------------------------------------------------------------------
 BFGS: starting iteration         2 with trial guess (lambda=  1.000000)
--------------------------------------------------------------------------------
 
                           -------------------------------
                                     Cell Contents
                           -------------------------------
 
            xxxxxxxxxxxxxxxxxxxxxxxxxxxxxxxxxxxxxxxxxxxxxxxxxxxxxxxxxxxx
            x  Element    Atom        Fractional coordinates of atoms  x
            x            Number           u          v          w      x
            x----------------------------------------------------------x
            x   H          1          0.166411   0.500011   0.372032   x
            x   H          2          0.666728   0.000010   0.372004   x
            x   H          3          0.831992   0.500011   0.639559   x
            x   H          4          1.331843   0.000012   0.639549   x
            x   H          5          0.495509   0.500013   0.505815   x
            x   H          6          0.994153   0.000013   0.505836   x
            x   C          1         -0.001356   0.000015   0.443582   x
            x   C          2          0.498770   0.500012   0.443481   x
            x   C          3          0.165662   0.500013   0.427144   x
            x   C          4          0.665693   0.000013   0.427084   x
            x   C          5          0.831543   0.500013   0.584556   x
            x   C          6          0.498411   0.500014   0.568096   x
            x   C          7          0.998387   0.000014   0.568134   x
            x   C          8          1.331343   0.000016   0.584540   x
            xxxxxxxxxxxxxxxxxxxxxxxxxxxxxxxxxxxxxxxxxxxxxxxxxxxxxxxxxxxx
 
 
------------------------------------------------------------------------ <-- SCF
SCF loop      Energy           Fermi           Energy gain       Timer   <-- SCF
                               energy          per atom          (sec)   <-- SCF
------------------------------------------------------------------------ <-- SCF
Initial  -1.33568132E+003  3.33869476E+000                      7931.02  <-- SCF
 Warning: There are no empty bands for at least one kpoint and spin; this may
          slow the convergence and/or lead to an inaccurate groundstate.
          If this warning persists, you should consider increasing nextra_bands
          and/or reducing smearing_width in the param file.
          Recommend using nextra_bands of 7 to 16.                              
  
      1  -1.34690907E+003  2.91066300E+000   8.01982254E-001    8030.98  <-- SCF
 Warning: There are no empty bands for at least one kpoint and spin; this may
          slow the convergence and/or lead to an inaccurate groundstate.
          If this warning persists, you should consider increasing nextra_bands
          and/or reducing smearing_width in the param file.
          Recommend using nextra_bands of 7 to 16.                              
  
      2  -1.34703341E+003  2.88282948E+000   8.88146740E-003    8143.08  <-- SCF
      3  -1.33934310E+003  1.53203596E+000  -5.49308061E-001    8289.91  <-- SCF
      4  -1.33872005E+003  1.50876468E+000  -4.45035656E-002    8439.83  <-- SCF
      5  -1.33858295E+003  1.49453159E+000  -9.79262023E-003    8588.09  <-- SCF
      6  -1.33856987E+003  1.46880974E+000  -9.34043948E-004    8732.25  <-- SCF
      7  -1.33858061E+003  1.42367634E+000   7.66774830E-004    8870.53  <-- SCF
      8  -1.33858141E+003  1.39391501E+000   5.73398358E-005    9009.97  <-- SCF
      9  -1.33857930E+003  1.34068640E+000  -1.51085464E-004    9153.22  <-- SCF
     10  -1.33857787E+003  1.29569164E+000  -1.01912452E-004    9294.02  <-- SCF
     11  -1.33857587E+003  1.24059031E+000  -1.42781977E-004    9429.73  <-- SCF
     12  -1.33857195E+003  1.09273539E+000  -2.79830081E-004    9568.97  <-- SCF
     13  -1.33856825E+003  9.92168962E-001  -2.64382229E-004    9709.72  <-- SCF
     14  -1.33856748E+003  9.37353404E-001  -5.50707206E-005    9842.62  <-- SCF
     15  -1.33856616E+003  8.99528065E-001  -9.41062275E-005    9980.33  <-- SCF
     16  -1.33856254E+003  7.89468997E-001  -2.58767575E-004   10120.41  <-- SCF
     17  -1.33856317E+003  7.71530480E-001   4.48627454E-005   10258.67  <-- SCF
     18  -1.33856455E+003  7.89531841E-001   9.90314848E-005   10396.92  <-- SCF
     19  -1.33856501E+003  7.89626306E-001   3.27440516E-005   10515.08  <-- SCF
     20  -1.33856532E+003  7.71749661E-001   2.20275126E-005   10630.31  <-- SCF
     21  -1.33856546E+003  7.63630269E-001   9.65956140E-006   10743.28  <-- SCF
     22  -1.33856557E+003  7.66294122E-001   8.09790409E-006   10851.28  <-- SCF
     23  -1.33856565E+003  7.70083334E-001   5.79696034E-006   10958.91  <-- SCF
     24  -1.33856566E+003  7.69395116E-001   1.01537602E-006   11066.09  <-- SCF
     25  -1.33856567E+003  7.69318471E-001   4.55690062E-007   11171.20  <-- SCF
     26  -1.33856567E+003  7.68976368E-001   2.58675555E-007   11274.42  <-- SCF
     27  -1.33856568E+003  7.69042963E-001   5.33398954E-008   11375.55  <-- SCF
------------------------------------------------------------------------ <-- SCF
 
 2*Integrated Spin Density   =    0.504215E-03
 2*Integrated |Spin Density| =    0.517554    
 
Final energy, E             =  -1338.559381812     eV
Final free energy (E-TS)    =  -1338.565675313     eV
(energies not corrected for finite basis set)
 
NB est. 0K energy (E-0.5TS) =  -1338.562528563     eV
 
 
 ******************************** Forces *********************************
 *                                                                       *
 *                      Cartesian components (eV/A)                      *
 * --------------------------------------------------------------------- *
 *              x                    y                    z              *
 *                                                                       *
 * H    1      0.00993              0.00001             -0.55878         *
 * H    2      0.01619             -0.00001             -0.57381         *
 * H    3     -0.02490              0.00000              0.58132         *
 * H    4     -0.02094              0.00000              0.57181         *
 * H    5      0.09443             -0.00003             -0.00579         *
 * H    6      0.12138             -0.00003             -0.01461         *
 * C    1     -0.05829             -0.00001             -0.76410         *
 * C    2     -0.05104             -0.00001             -0.67020         *
 * C    3     -0.03430              0.00006             -1.17938         *
 * C    4     -0.04389              0.00009             -1.12571         *
 * C    5     -0.02054              0.00002              1.21195         *
 * C    6      0.00329              0.00003              0.65630         *
 * C    7      0.00187              0.00000              0.63718         *
 * C    8      0.00681             -0.00010              1.23381         *
 *                                                                       *
 *************************************************************************
  
 +------------+-------------+-------------+-----------------+ <-- min BFGS
 |    Step    |   lambda    |   F.delta   |    enthalpy     | <-- min BFGS
 +------------+-------------+-------------+-----------------+ <-- min BFGS
 |  previous  |    0.000000 |    0.014157 |    -1338.268830 | <-- min BFGS
 | trial step |    1.000000 |    0.007478 |    -1338.565675 | <-- min BFGS
 +------------+-------------+-------------+-----------------+ <-- min BFGS
  

--------------------------------------------------------------------------------
 BFGS: improving iteration         2 with line minimization (lambda=  2.119629)
--------------------------------------------------------------------------------
 
                           -------------------------------
                                     Cell Contents
                           -------------------------------
 
            xxxxxxxxxxxxxxxxxxxxxxxxxxxxxxxxxxxxxxxxxxxxxxxxxxxxxxxxxxxx
            x  Element    Atom        Fractional coordinates of atoms  x
            x            Number           u          v          w      x
            x----------------------------------------------------------x
            x   H          1          0.166445   0.500011   0.372149   x
            x   H          2          0.666771   0.000010   0.372126   x
            x   H          3          0.831914   0.500011   0.639407   x
            x   H          4          1.331781   0.000012   0.639402   x
            x   H          5          0.495877   0.500013   0.505800   x
            x   H          6          0.994650   0.000013   0.505811   x
            x   C          1         -0.001674   0.000015   0.441833   x
            x   C          2          0.498562   0.500012   0.441689   x
            x   C          3          0.165636   0.500013   0.425721   x
            x   C          4          0.665663   0.000013   0.425620   x
            x   C          5          0.831550   0.500013   0.585947   x
            x   C          6          0.498360   0.500015   0.569981   x
            x   C          7          0.998278   0.000014   0.570025   x
            x   C          8          1.331278   0.000017   0.585901   x
            xxxxxxxxxxxxxxxxxxxxxxxxxxxxxxxxxxxxxxxxxxxxxxxxxxxxxxxxxxxx
 
 
------------------------------------------------------------------------ <-- SCF
SCF loop      Energy           Fermi           Energy gain       Timer   <-- SCF
                               energy          per atom          (sec)   <-- SCF
------------------------------------------------------------------------ <-- SCF
Initial  -1.33502679E+003  3.29566529E+000                     11513.78  <-- SCF
      1  -1.34956155E+003  2.85852772E+000   1.03819738E+000   11613.33  <-- SCF
      2  -1.34972108E+003  2.82111008E+000   1.13950766E-002   11727.61  <-- SCF
      3  -1.33974623E+003  1.71937287E+000  -7.12489542E-001   11871.73  <-- SCF
      4  -1.33887891E+003  1.65524234E+000  -6.19515235E-002   12020.61  <-- SCF
      5  -1.33870250E+003  1.62388479E+000  -1.26007106E-002   12162.80  <-- SCF
      6  -1.33868045E+003  1.58881091E+000  -1.57481751E-003   12309.42  <-- SCF
      7  -1.33869248E+003  1.53738611E+000   8.59392327E-004   12450.30  <-- SCF
      8  -1.33869291E+003  1.50227286E+000   3.06307776E-005   12593.92  <-- SCF
      9  -1.33869009E+003  1.43865969E+000  -2.01706584E-004   12736.20  <-- SCF
     10  -1.33868789E+003  1.38728603E+000  -1.57256689E-004   12874.14  <-- SCF
     11  -1.33868508E+003  1.31972289E+000  -2.00758352E-004   13005.91  <-- SCF
     12  -1.33867942E+003  1.15416776E+000  -4.04299140E-004   13146.91  <-- SCF
     13  -1.33867506E+003  1.04500120E+000  -3.11129440E-004   13290.42  <-- SCF
     14  -1.33867329E+003  9.80805606E-001  -1.26424875E-004   13428.39  <-- SCF
     15  -1.33867089E+003  9.45848975E-001  -1.71104529E-004   13568.19  <-- SCF
     16  -1.33866879E+003  8.55057537E-001  -1.50158225E-004   13700.31  <-- SCF
     17  -1.33866970E+003  8.28321199E-001   6.49902070E-005   13842.06  <-- SCF
     18  -1.33867123E+003  8.43563486E-001   1.08822811E-004   13978.36  <-- SCF
     19  -1.33867201E+003  8.50073901E-001   5.61266454E-005   14100.22  <-- SCF
     20  -1.33867223E+003  8.38824194E-001   1.57842765E-005   14219.00  <-- SCF
     21  -1.33867246E+003  8.32356921E-001   1.62544735E-005   14329.20  <-- SCF
     22  -1.33867260E+003  8.34656343E-001   9.71400257E-006   14437.58  <-- SCF
     23  -1.33867266E+003  8.38435729E-001   4.58777788E-006   14537.77  <-- SCF
     24  -1.33867266E+003  8.36084190E-001   2.90298961E-007   14647.34  <-- SCF
     25  -1.33867267E+003  8.35285597E-001   7.01853138E-007   14752.00  <-- SCF
     26  -1.33867268E+003  8.35372433E-001   6.65577712E-007   14856.17  <-- SCF
     27  -1.33867269E+003  8.35998642E-001   3.33496981E-007   14961.89  <-- SCF
     28  -1.33867269E+003  8.36057838E-001   1.49317142E-007   15066.09  <-- SCF
------------------------------------------------------------------------ <-- SCF
 
 2*Integrated Spin Density   =    0.420833E-02
 2*Integrated |Spin Density| =    0.249379E-01
 
Final energy, E             =  -1338.657504346     eV
Final free energy (E-TS)    =  -1338.672690264     eV
(energies not corrected for finite basis set)
 
NB est. 0K energy (E-0.5TS) =  -1338.665097305     eV
 
 
 ******************************** Forces *********************************
 *                                                                       *
 *                      Cartesian components (eV/A)                      *
 * --------------------------------------------------------------------- *
 *              x                    y                    z              *
 *                                                                       *
 * H    1     -0.00057              0.00002             -1.48970         *
 * H    2      0.01148              0.00000             -1.54424         *
 * H    3     -0.01774              0.00001              1.60638         *
 * H    4     -0.01412              0.00001              1.57408         *
 * H    5      0.09085             -0.00001              0.00809         *
 * H    6      0.10977             -0.00001             -0.00189         *
 * C    1      0.04126             -0.00023              0.25371         *
 * C    2      0.00417             -0.00007              0.28113         *
 * C    3     -0.08646              0.00014             -0.40473         *
 * C    4     -0.10516              0.00025             -0.39751         *
 * C    5     -0.02982              0.00000              0.46080         *
 * C    6     -0.02148              0.00003             -0.40976         *
 * C    7     -0.01207              0.00003             -0.39174         *
 * C    8      0.02989             -0.00017              0.45540         *
 *                                                                       *
 *************************************************************************
  
 +------------+-------------+-------------+-----------------+ <-- min BFGS
 |    Step    |   lambda    |   F.delta   |    enthalpy     | <-- min BFGS
 +------------+-------------+-------------+-----------------+ <-- min BFGS
 |  previous  |    0.000000 |    0.014157 |    -1338.268830 | <-- min BFGS
 | trial step |    1.000000 |    0.007478 |    -1338.565675 | <-- min BFGS
 |  line step |    2.119629 |   -0.000567 |    -1338.672690 | <-- min BFGS
 +------------+-------------+-------------+-----------------+ <-- min BFGS
  
 BFGS: finished iteration   2  with enthalpy= -1.33867269E+003 eV
  
 +-----------+-----------------+-----------------+------------+-----+ <-- BFGS
 | Parameter |      value      |    tolerance    |    units   | OK? | <-- BFGS
 +-----------+-----------------+-----------------+------------+-----+ <-- BFGS
 |  dE/ion   |   2.884718E-002 |   5.000000E-006 |         eV | No  | <-- BFGS
 |  |F|max   |   1.606473E+000 |   1.000000E-002 |       eV/A | No  | <-- BFGS
 |  |dR|max  |   7.159101E-002 |   5.000000E-004 |          A | No  | <-- BFGS
 +-----------+-----------------+-----------------+------------+-----+ <-- BFGS
  

================================================================================
 Starting BFGS iteration          3 ...
================================================================================
  
 +------------+-------------+-------------+-----------------+ <-- min BFGS
 |    Step    |   lambda    |   F.delta   |    enthalpy     | <-- min BFGS
 +------------+-------------+-------------+-----------------+ <-- min BFGS
 |  previous  |    0.000000 |    0.004977 |    -1338.672690 | <-- min BFGS
 +------------+-------------+-------------+-----------------+ <-- min BFGS
  

--------------------------------------------------------------------------------
 BFGS: starting iteration         3 with trial guess (lambda=  1.000000)
--------------------------------------------------------------------------------
 
                           -------------------------------
                                     Cell Contents
                           -------------------------------
 
            xxxxxxxxxxxxxxxxxxxxxxxxxxxxxxxxxxxxxxxxxxxxxxxxxxxxxxxxxxxx
            x  Element    Atom        Fractional coordinates of atoms  x
            x            Number           u          v          w      x
            x----------------------------------------------------------x
            x   H          1          0.166451   0.500011   0.371217   x
            x   H          2          0.666814   0.000010   0.371160   x
            x   H          3          0.831843   0.500011   0.640406   x
            x   H          4          1.331724   0.000012   0.640382   x
            x   H          5          0.496231   0.500013   0.505802   x
            x   H          6          0.995089   0.000013   0.505804   x
            x   C          1         -0.001628   0.000014   0.441549   x
            x   C          2          0.498525   0.500012   0.441413   x
            x   C          3          0.165376   0.500013   0.425132   x
            x   C          4          0.665348   0.000014   0.425026   x
            x   C          5          0.831464   0.500013   0.586566   x
            x   C          6          0.498285   0.500015   0.570195   x
            x   C          7          0.998218   0.000014   0.570252   x
            x   C          8          1.331350   0.000016   0.586509   x
            xxxxxxxxxxxxxxxxxxxxxxxxxxxxxxxxxxxxxxxxxxxxxxxxxxxxxxxxxxxx
 
 
------------------------------------------------------------------------ <-- SCF
SCF loop      Energy           Fermi           Energy gain       Timer   <-- SCF
                               energy          per atom          (sec)   <-- SCF
------------------------------------------------------------------------ <-- SCF
Initial  -1.33851499E+003  1.98806470E+000                     15198.89  <-- SCF
      1  -1.33982639E+003  1.95303970E+000   9.36718529E-002   15296.94  <-- SCF
      2  -1.33983503E+003  1.95208350E+000   6.16947143E-004   15409.52  <-- SCF
      3  -1.33896253E+003  1.51756968E+000  -6.23218163E-002   15550.88  <-- SCF
      4  -1.33881989E+003  1.38593702E+000  -1.01881538E-002   15697.98  <-- SCF
      5  -1.33881279E+003  1.37299197E+000  -5.07242662E-004   15849.08  <-- SCF
      6  -1.33880671E+003  1.34154990E+000  -4.34530518E-004   15986.88  <-- SCF
      7  -1.33880407E+003  1.26559436E+000  -1.88584414E-004   16132.41  <-- SCF
      8  -1.33880377E+003  1.21933500E+000  -2.13773636E-005   16271.62  <-- SCF
      9  -1.33880315E+003  1.12958168E+000  -4.38635652E-005   16410.83  <-- SCF
     10  -1.33880313E+003  1.06882365E+000  -1.95769029E-006   16543.20  <-- SCF
     11  -1.33880238E+003  1.00055506E+000  -5.32046896E-005   16664.86  <-- SCF
     12  -1.33880147E+003  9.65059402E-001  -6.48037676E-005   16788.77  <-- SCF
     13  -1.33880092E+003  9.30475798E-001  -3.95165634E-005   16912.77  <-- SCF
     14  -1.33879901E+003  8.54303869E-001  -1.36666040E-004   17040.19  <-- SCF
     15  -1.33879797E+003  8.12285472E-001  -7.42711909E-005   17162.19  <-- SCF
     16  -1.33879871E+003  8.11425899E-001   5.28884024E-005   17290.55  <-- SCF
     17  -1.33879919E+003  7.96126398E-001   3.43205172E-005   17407.53  <-- SCF
     18  -1.33879972E+003  7.75948143E-001   3.76516897E-005   17520.27  <-- SCF
     19  -1.33879997E+003  7.76389170E-001   1.83341324E-005   17631.72  <-- SCF
     20  -1.33880011E+003  7.80256145E-001   9.95865696E-006   17738.77  <-- SCF
     21  -1.33880018E+003  7.80216233E-001   4.71674371E-006   17844.58  <-- SCF
     22  -1.33880020E+003  7.79512164E-001   1.38885795E-006   17950.58  <-- SCF
     23  -1.33880020E+003  7.79238905E-001   4.42633624E-007   18056.36  <-- SCF
     24  -1.33880021E+003  7.78416498E-001   1.52597244E-007   18159.31  <-- SCF
     25  -1.33880021E+003  7.78127850E-001   3.38960513E-008   18253.09  <-- SCF
------------------------------------------------------------------------ <-- SCF
 
 2*Integrated Spin Density   =    0.488163E-02
 2*Integrated |Spin Density| =    0.699608E-01
 
Final energy, E             =  -1338.785502965     eV
Final free energy (E-TS)    =  -1338.800205552     eV
(energies not corrected for finite basis set)
 
NB est. 0K energy (E-0.5TS) =  -1338.792854258     eV
 
 
 ******************************** Forces *********************************
 *                                                                       *
 *                      Cartesian components (eV/A)                      *
 * --------------------------------------------------------------------- *
 *              x                    y                    z              *
 *                                                                       *
 * H    1     -0.00095              0.00002             -1.24227         *
 * H    2      0.00934              0.00001             -1.27412         *
 * H    3     -0.01630              0.00001              1.32584         *
 * H    4     -0.01050              0.00001              1.30086         *
 * H    5      0.08019              0.00000              0.02854         *
 * H    6      0.09668             -0.00001              0.02080         *
 * C    1     -0.01197             -0.00005              0.18749         *
 * C    2     -0.02875              0.00007              0.20504         *
 * C    3     -0.04071             -0.00001             -0.46427         *
 * C    4     -0.04954              0.00007             -0.50863         *
 * C    5     -0.01967              0.00001              0.50023         *
 * C    6     -0.00780             -0.00005             -0.29577         *
 * C    7     -0.00572              0.00001             -0.27884         *
 * C    8      0.00571             -0.00007              0.49510         *
 *                                                                       *
 *************************************************************************
  
 +------------+-------------+-------------+-----------------+ <-- min BFGS
 |    Step    |   lambda    |   F.delta   |    enthalpy     | <-- min BFGS
 +------------+-------------+-------------+-----------------+ <-- min BFGS
 |  previous  |    0.000000 |    0.004977 |    -1338.672690 | <-- min BFGS
 | trial step |    1.000000 |    0.004382 |    -1338.800206 | <-- min BFGS
 +------------+-------------+-------------+-----------------+ <-- min BFGS
  

--------------------------------------------------------------------------------
 BFGS: improving iteration         3 with line minimization (lambda=  8.357026)
--------------------------------------------------------------------------------
 
                           -------------------------------
                                     Cell Contents
                           -------------------------------
 
            xxxxxxxxxxxxxxxxxxxxxxxxxxxxxxxxxxxxxxxxxxxxxxxxxxxxxxxxxxxx
            x  Element    Atom        Fractional coordinates of atoms  x
            x            Number           u          v          w      x
            x----------------------------------------------------------x
            x   H          1          0.166497   0.500012   0.364356   x
            x   H          2          0.667136   0.000010   0.364048   x
            x   H          3          0.831322   0.500011   0.647760   x
            x   H          4          1.331308   0.000012   0.647591   x
            x   H          5          0.498829   0.500012   0.505813   x
            x   H          6          0.998318   0.000012   0.505752   x
            x   C          1         -0.001291   0.000007   0.439462   x
            x   C          2          0.498251   0.500010   0.439383   x
            x   C          3          0.163465   0.500019   0.420797   x
            x   C          4          0.663027   0.000022   0.420654   x
            x   C          5          0.830833   0.500014   0.591115   x
            x   C          6          0.497739   0.500016   0.571773   x
            x   C          7          0.997777   0.000015   0.571927   x
            x   C          8          1.331878   0.000010   0.590981   x
            xxxxxxxxxxxxxxxxxxxxxxxxxxxxxxxxxxxxxxxxxxxxxxxxxxxxxxxxxxxx
 
 
------------------------------------------------------------------------ <-- SCF
SCF loop      Energy           Fermi           Energy gain       Timer   <-- SCF
                               energy          per atom          (sec)   <-- SCF
------------------------------------------------------------------------ <-- SCF
Initial  -1.32462687E+003  8.12697813E+000                     18393.11  <-- SCF
 Warning: There are no empty bands for at least one kpoint and spin; this may
          slow the convergence and/or lead to an inaccurate groundstate.
          If this warning persists, you should consider increasing nextra_bands
          and/or reducing smearing_width in the param file.
          Recommend using nextra_bands of 7 to 16.                              
  
      1  -1.41966655E+003  4.77178993E+000   6.78854838E+000   18503.41  <-- SCF
 Warning: There are no empty bands for at least one kpoint and spin; this may
          slow the convergence and/or lead to an inaccurate groundstate.
          If this warning persists, you should consider increasing nextra_bands
          and/or reducing smearing_width in the param file.
          Recommend using nextra_bands of 7 to 16.                              
  
      2  -1.42559503E+003  4.15480281E+000   4.23463048E-001   18630.12  <-- SCF
 Warning: There are no empty bands for at least one kpoint and spin; this may
          slow the convergence and/or lead to an inaccurate groundstate.
          If this warning persists, you should consider increasing nextra_bands
          and/or reducing smearing_width in the param file.
          Recommend using nextra_bands of 7 to 16.                              
  
      3  -1.33742491E+003  2.20565962E+000  -6.29786576E+000   18795.91  <-- SCF
      4  -1.34026074E+003  1.13440329E+000   2.02559364E-001   18944.39  <-- SCF
      5  -1.33948805E+003  1.55800376E+000  -5.51921232E-002   19085.78  <-- SCF
      6  -1.33927383E+003  1.57686714E+000  -1.53011878E-002   19232.00  <-- SCF
      7  -1.33929290E+003  1.49434053E+000   1.36180055E-003   19373.62  <-- SCF
      8  -1.33926639E+003  1.43229094E+000  -1.89345176E-003   19518.25  <-- SCF
      9  -1.33926216E+003  1.36739194E+000  -3.02220112E-004   19656.56  <-- SCF
     10  -1.33926274E+003  1.28678356E+000   4.16186477E-005   19795.94  <-- SCF
     11  -1.33925729E+003  1.22768719E+000  -3.89530587E-004   19936.44  <-- SCF
     12  -1.33924570E+003  1.10152977E+000  -8.27422884E-004   20080.64  <-- SCF
     13  -1.33923479E+003  9.87420462E-001  -7.79500785E-004   20225.50  <-- SCF
     14  -1.33923365E+003  9.63588512E-001  -8.16203772E-005   20362.72  <-- SCF
     15  -1.33923289E+003  9.59495778E-001  -5.39862979E-005   20483.30  <-- SCF
     16  -1.33923437E+003  9.64183688E-001   1.05130903E-004   20622.02  <-- SCF
     17  -1.33923654E+003  9.67530420E-001   1.55149692E-004   20761.50  <-- SCF
     18  -1.33922854E+003  9.12534949E-001  -5.71463619E-004   20900.28  <-- SCF
     19  -1.33922883E+003  8.32790662E-001   2.07300803E-005   21039.59  <-- SCF
     20  -1.33922301E+003  7.63992391E-001  -4.15613979E-004   21173.66  <-- SCF
     21  -1.33920608E+003  5.79976754E-001  -1.20891145E-003   21315.22  <-- SCF
     22  -1.33920439E+003  4.79626751E-001  -1.21215015E-004   21458.09  <-- SCF
     23  -1.33920839E+003  4.82002443E-001   2.85620299E-004   21598.08  <-- SCF
     24  -1.33920710E+003  4.17166716E-001  -9.18129021E-005   21737.31  <-- SCF
     25  -1.33920684E+003  3.67365079E-001  -1.84813920E-005   21875.12  <-- SCF
     26  -1.33920712E+003  3.68446942E-001   2.01440468E-005   22020.17  <-- SCF
     27  -1.33920742E+003  3.69876591E-001   2.12501221E-005   22136.38  <-- SCF
     28  -1.33920717E+003  3.69762549E-001  -1.79698309E-005   22270.70  <-- SCF
     29  -1.33920690E+003  3.68349673E-001  -1.89649798E-005   22407.47  <-- SCF
     30  -1.33920717E+003  3.67285005E-001   1.87467851E-005   22514.61  <-- SCF
     31  -1.33920668E+003  3.66362918E-001  -3.49771215E-005   22655.00  <-- SCF
     32  -1.33920704E+003  3.63926146E-001   2.62222426E-005   22795.11  <-- SCF
     33  -1.33920025E+003  3.67146563E-001  -4.85605623E-004   22933.53  <-- SCF
     34  -1.33920430E+003  3.60295850E-001   2.89483864E-004   23069.73  <-- SCF
     35  -1.33920744E+003  3.61526746E-001   2.24641860E-004   23210.84  <-- SCF
     36  -1.33920826E+003  3.60580237E-001   5.81164989E-005   23347.50  <-- SCF
     37  -1.33920854E+003  3.60045818E-001   1.99255724E-005   23484.28  <-- SCF
     38  -1.33920786E+003  3.63524612E-001  -4.79357643E-005   23623.44  <-- SCF
     39  -1.33920864E+003  3.65064765E-001   5.54666149E-005   23763.58  <-- SCF
     40  -1.33920841E+003  3.63196409E-001  -1.65358988E-005   23894.83  <-- SCF
     41  -1.33920773E+003  3.63162766E-001  -4.87292798E-005   24034.67  <-- SCF
     42  -1.33920760E+003  3.63292088E-001  -8.77571926E-006   24176.66  <-- SCF
     43  -1.33920648E+003  3.65954287E-001  -8.01694526E-005   24316.88  <-- SCF
     44  -1.33920827E+003  3.64532268E-001   1.27965895E-004   24451.33  <-- SCF
     45  -1.33920850E+003  3.63802606E-001   1.61263555E-005   24568.00  <-- SCF
     46  -1.33920848E+003  3.63453670E-001  -1.25108000E-006   24687.98  <-- SCF
     47  -1.33920857E+003  3.63274714E-001   6.03029105E-006   24792.95  <-- SCF
     48  -1.33920842E+003  3.62631643E-001  -1.04407457E-005   24930.19  <-- SCF
     49  -1.33920831E+003  3.62151970E-001  -8.07149333E-006   25064.83  <-- SCF
     50  -1.33920797E+003  3.62880722E-001  -2.43591897E-005   25206.69  <-- SCF
     51  -1.33920830E+003  3.64403561E-001   2.40737429E-005   25350.31  <-- SCF
     52  -1.33920772E+003  3.62195434E-001  -4.19755369E-005   25487.56  <-- SCF
     53  -1.33920744E+003  3.61628181E-001  -1.97906437E-005   25628.62  <-- SCF
     54  -1.33920783E+003  3.62621172E-001   2.81013609E-005   25764.53  <-- SCF
     55  -1.33920800E+003  3.64394388E-001   1.16877158E-005   25908.08  <-- SCF
     56  -1.33920843E+003  3.65031049E-001   3.09291607E-005   26025.97  <-- SCF
     57  -1.33920846E+003  3.65426525E-001   2.34622856E-006   26132.33  <-- SCF
     58  -1.33920845E+003  3.65502267E-001  -9.98423758E-007   26234.67  <-- SCF
     59  -1.33920840E+003  3.66427495E-001  -3.18247608E-006   26353.44  <-- SCF
     60  -1.33920818E+003  3.65358069E-001  -1.59487266E-005   26490.28  <-- SCF
     61  -1.33920844E+003  3.65198655E-001   1.82917212E-005   26594.66  <-- SCF
     62  -1.33920773E+003  3.63117591E-001  -5.03617927E-005   26731.91  <-- SCF
     63  -1.33920853E+003  3.63129566E-001   5.69763616E-005   26846.36  <-- SCF
     64  -1.33920703E+003  3.62223596E-001  -1.07222962E-004   26980.14  <-- SCF
     65  -1.33920708E+003  3.63898039E-001   3.87331752E-006   27120.03  <-- SCF
     66  -1.33920841E+003  3.64245474E-001   9.50406030E-005   27254.05  <-- SCF
     67  -1.33920849E+003  3.64629808E-001   5.64361457E-006   27364.52  <-- SCF
     68  -1.33920841E+003  3.64100817E-001  -5.81253554E-006   27480.02  <-- SCF
     69  -1.33920786E+003  3.62733294E-001  -3.91885208E-005   27614.94  <-- SCF
     70  -1.33920798E+003  3.62477451E-001   8.48012763E-006   27759.72  <-- SCF
     71  -1.33920799E+003  3.63320081E-001   1.00276025E-006   27895.77  <-- SCF
     72  -1.33920853E+003  3.62634912E-001   3.82734812E-005   28030.19  <-- SCF
     73  -1.33920847E+003  3.63632422E-001  -4.38229848E-006   28158.34  <-- SCF
     74  -1.33920870E+003  3.63668921E-001   1.69188954E-005   28257.38  <-- SCF
     75  -1.33920855E+003  3.63097007E-001  -1.08079227E-005   28369.08  <-- SCF
     76  -1.33920861E+003  3.62780678E-001   3.74399228E-006   28478.33  <-- SCF
     77  -1.33920867E+003  3.63077089E-001   4.66831400E-006   28585.73  <-- SCF
     78  -1.33920861E+003  3.62740547E-001  -4.10096647E-006   28693.48  <-- SCF
     79  -1.33920868E+003  3.62900832E-001   4.71395437E-006   28797.62  <-- SCF
     80  -1.33920868E+003  3.62951862E-001   1.99521767E-007   28899.17  <-- SCF
     81  -1.33920867E+003  3.62857223E-001  -8.16588159E-007   29001.12  <-- SCF
     82  -1.33920869E+003  3.62616647E-001   1.21389745E-006   29101.23  <-- SCF
     83  -1.33920826E+003  3.61632768E-001  -3.02919438E-005   29240.94  <-- SCF
     84  -1.33920856E+003  3.61317502E-001   2.14123508E-005   29355.70  <-- SCF
     85  -1.33920862E+003  3.61457102E-001   4.26894435E-006   29461.66  <-- SCF
     86  -1.33920861E+003  3.61866951E-001  -7.56978593E-007   29567.97  <-- SCF
     87  -1.33920846E+003  3.62018031E-001  -1.09300943E-005   29698.14  <-- SCF
     88  -1.33920861E+003  3.62244609E-001   1.09736241E-005   29801.64  <-- SCF
     89  -1.33920859E+003  3.62315703E-001  -1.43786701E-006   29914.81  <-- SCF
     90  -1.33920399E+003  3.66046052E-001  -3.28590011E-004   30047.98  <-- SCF
     91  -1.33920749E+003  3.61720917E-001   2.50122874E-004   30186.86  <-- SCF
     92  -1.33920755E+003  3.60097387E-001   4.00619806E-006   30326.67  <-- SCF
     93  -1.33920848E+003  3.60443590E-001   6.60402680E-005   30464.23  <-- SCF
     94  -1.33920500E+003  3.63430324E-001  -2.47962242E-004   30601.22  <-- SCF
     95  -1.33920871E+003  3.63596611E-001   2.64590450E-004   30742.55  <-- SCF
     96  -1.33920855E+003  3.66806402E-001  -1.15273837E-005   30883.23  <-- SCF
     97  -1.33920852E+003  3.64814208E-001  -2.12634101E-006   31003.22  <-- SCF
     98  -1.33920688E+003  3.60524738E-001  -1.16978245E-004   31140.22  <-- SCF
     99  -1.33920871E+003  3.60830997E-001   1.31031384E-004   31276.72  <-- SCF
    100  -1.33920873E+003  3.60985338E-001   1.13175054E-006   31386.73  <-- SCF
------------------------------------------------------------------------ <-- SCF
 *Warning* max. SCF cycles performed but system has not reached the groundstate.
  
Current total energy, E     =  -1339.196139615     eV
Current free energy (E-TS)  =  -1339.208729821     eV
(energies not corrected for finite basis set)
 
NB est. 0K energy (E-0.5TS) =  -1339.202434718     eV
 
  ****************************************************************************
  Warning: electronic minimisation did not converge when finding ground state.
  ****************************************************************************
 
Writing model to C4H3.check                                                                                                                                                                                                                                                      
Error in geom_get_forces - electronic_minimisation of current_cell failed
