 +-------------------------------------------------+
 |                                                 |
 |      CCC   AA    SSS  TTTTT  EEEEE  PPPP        |
 |     C     A  A  S       T    E      P   P       |
 |     C     AAAA   SS     T    EEE    PPPP        |
 |     C     A  A     S    T    E      P           |
 |      CCC  A  A  SSS     T    EEEEE  P           |
 |                                                 |
 +-------------------------------------------------+
 |                                                 |
 | Welcome to Materials Studio CASTEP version 3.2  |
 | Ab Initio Total Energy Program                  |
 |                                                 |
 | Authors:                                        |
 | M. Segall, M. Probert, C. Pickard, P. Hasnip    |
 | S. Clark, K. Refson, M. Payne                   |
 |                                                 |
 | Contributors:                                   |
 | P. Lindan, P. Haynes, J. White, V. Milman       |
 | N. Govind, M. Gibson, P. Tulip, V. Cocula       |
 | B. Montanari, D. Quigley                        |
 |                                                 |
 | Copyright (c) 2000,2001,2002,2003,2004          |
 |                                                 |
 | Please cite                                     |
 |                                                 |
 |    "First-principles simulation: ideas,         |
 |    illustrations and the CASTEP code",          |
 |                                                 |
 | J. Phys.: Cond. Matt. 14(11) pp.2717-2743 (2002)|
 |                                                 |
 | M. D. Segall, P. J. D. Lindan, M. J. Probert,   |
 | C. J. Pickard, P. J. Hasnip, S. J. Clark,       |
 | M. C. Payne                                     |
 |                                                 |
 |       in all publications arising from          |
 |              your use of CASTEP                 |
 |                                                 |
 +-------------------------------------------------+
 
License checkout of MS_castep successful
Number of licenses checked out     1
 
 Warning in parameters_read: number of up-spin electrons is equal to the
                             number of down-spins and spin_polarized=true
                             - consider setting spin_polarized=false.
 
 Pseudo atomic calculation performed for H 1s1
 
 Converged in 18 iterations to a total energy of -12.460019 eV
 
 
 Pseudo atomic calculation performed for C 2s2 2p2
 
 Converged in 21 iterations to a total energy of -146.419565 eV
 
Calculation parallelised over    1 nodes.
K-points are distributed over    1 groups, each containing    1 nodes.

 ************************************ Title ************************************
 CASTEP calculation from Materials Studio

 ***************************** General Parameters ******************************
  
 output verbosity                               : normal  (1)
 write checkpoint data to                       : CH-chair_c04x00.check
 type of calculation                            : geometry optimization
 stress calculation                             : off
 density difference calculation                 : off
 unlimited duration calculation
 timing information                             : on
  
 output         length unit                     : A
 output           mass unit                     : amu
 output           time unit                     : ps
 output         charge unit                     : e
 output         energy unit                     : eV
 output          force unit                     : eV/A
 output       velocity unit                     : A/ps
 output       pressure unit                     : GPa
 output     inv_length unit                     : 1/A
 output      frequency unit                     : cm-1
 output force constant unit                     : eV/A**2
 output         volume unit                     : A**3
  
 wavefunctions paging                           : none
 random number generator seed                   : randomised (91458975)
 data distribution                              : optimal for this architecture
 optimization strategy                          : balance speed and memory

 *********************** Exchange-Correlation Parameters ***********************
  
 using functional                               : Perdew Burke Ernzerhof

 ************************* Pseudopotential Parameters **************************
  
 pseudopotential representation                 : reciprocal space
 <beta|phi> representation                      : reciprocal space

 **************************** Basis Set Parameters *****************************
  
 plane wave basis set cut-off                   :   310.0000   eV
 size of standard grid                          :     1.7500
 size of fine grid                              :    15.7855   1/A
 finite basis set correction                    : none

 **************************** Electronic Parameters ****************************
  
 number of  electrons                           :         20
 net charge of system                           :          0
 net spin   of system                           :          0
 number of  up  spins                           :         10
 number of down spins                           :         10
 treating system as spin-polarized
 number of bands                                :         14

 ********************* Electronic Minimization Parameters **********************
  
 Method: Treating system as metallic with density mixing treatment of electrons,
         and number of  SD  steps               :          1
         and number of  CG  steps               :          4
  
 total energy / atom convergence tol.           : 0.5000E-06   eV
 eigen-energy convergence tolerance             : 0.2857E-06   eV
 convergence tolerance window                   :          3   cycles
 max. number of SCF cycles                      :        100
 number of fixed-spin iterations                :          6
 smearing scheme                                : Gaussian
 smearing width                                 : 0.1000       eV
 Fermi energy convergence tolerance             : 0.2857E-07   eV

 ************************** Density Mixing Parameters **************************
  
 density-mixing scheme                          : Pulay
 max. length of mixing history                  :         20
 charge density mixing amplitude                : 0.5000    
   spin density mixing amplitude                :  2.000    
 cut-off energy for mixing                      :  310.0       eV
 charge density mixing g-vector                 :  1.500       1/A
   spin density mixing g-vector                 :  1.500       1/A

 ********************** Geometry Optimization Parameters ***********************
  
 optimization method                            : BFGS
 variable cell method                           : fixed basis quality
 max. number of steps                           :        100
 estimated bulk modulus                         :  500.0       GPa
 estimated <frequency>                          :  1668.       cm-1
 total energy convergence tolerance             : 0.5000E-05   eV/atom
        max ionic |force| tolerance             : 0.1000E-01   eV/A
 max ionic |displacement| tolerance             : 0.5000E-03   A
   max |stress component| tolerance             : 0.2000E-01   GPa
 convergence tolerance window                   :          2   steps
 backup results every                           :          5   steps

 *******************************************************************************
  
 
                           -------------------------------
                                      Unit Cell
                           -------------------------------
        Real Lattice(A)                      Reciprocal Lattice(1/A)
   4.4000000   0.0000000   0.0000000        1.4279967   0.0000000   0.0000000
   0.0000000   2.5400000   0.0000000        0.0000000   2.4736950   0.0000000
   0.0000000   0.0000000   4.0000000        0.0000000   0.0000000   1.5707963
 
                       Lattice parameters(A)       Cell Angles
                    a =    4.400000          alpha =   90.000000
                    b =    2.540000          beta  =   90.000000
                    c =    4.000000          gamma =   90.000000
 
                       Current cell volume =   44.704000       A**3
 
                           -------------------------------
                                     Cell Contents
                           -------------------------------
                         Total number of ions in cell =    8
                      Total number of species in cell =    2
                        Max number of any one species =    4
 
            xxxxxxxxxxxxxxxxxxxxxxxxxxxxxxxxxxxxxxxxxxxxxxxxxxxxxxxxxxxx
            x  Element    Atom        Fractional coordinates of atoms  x
            x            Number           u          v          w      x
            x----------------------------------------------------------x
            x   H          1         -0.000413   0.000013   0.830778   x
            x   H          2          0.499587   0.500013   0.830778   x
            x   H          3          0.166230   0.500013   0.161660   x
            x   H          4          0.666230   0.000013   0.161661   x
            x   C          1         -0.000394   0.000013   0.553651   x
            x   C          2          0.499607   0.500013   0.553651   x
            x   C          3          0.166210   0.500013   0.438788   x
            x   C          4          0.666210   0.000013   0.438788   x
            xxxxxxxxxxxxxxxxxxxxxxxxxxxxxxxxxxxxxxxxxxxxxxxxxxxxxxxxxxxx
 
 
                         No user defined ionic velocities
 
                           -------------------------------
                                   Details of Species
                           -------------------------------
 
                               Mass of species in AMU
                                    H      1.0080000
                                    C     12.0109997
 
                          Electric Quadrupole Moment (Barn)
                                    H      0.0028600 Isotope  2
                                    C      1.0000000 No Isotope Defined
 
                          Files used for pseudopotentials:
                                    H H_00.usp
                                    C C_00.usp
 
                           -------------------------------
                              k-Points For BZ Sampling
                           -------------------------------
                         Number of kpoints used =         180
 
             +++++++++++++++++++++++++++++++++++++++++++++++++++++++
             +  Number       Fractional coordinates        Weight  +
             +-----------------------------------------------------+
             +     1   0.416667   0.450000   0.416667   0.0055556  +
             +     2   0.416667   0.450000   0.250000   0.0055556  +
             +     3   0.416667   0.450000   0.083333   0.0055556  +
             +     4   0.416667   0.450000  -0.083333   0.0055556  +
             +     5   0.416667   0.450000  -0.250000   0.0055556  +
             +     6   0.416667   0.450000  -0.416667   0.0055556  +
             +     7   0.416667   0.350000   0.416667   0.0055556  +
             +     8   0.416667   0.350000   0.250000   0.0055556  +
             +     9   0.416667   0.350000   0.083333   0.0055556  +
             +    10   0.416667   0.350000  -0.083333   0.0055556  +
             +    11   0.416667   0.350000  -0.250000   0.0055556  +
             +    12   0.416667   0.350000  -0.416667   0.0055556  +
             +    13   0.416667   0.250000   0.416667   0.0055556  +
             +    14   0.416667   0.250000   0.250000   0.0055556  +
             +    15   0.416667   0.250000   0.083333   0.0055556  +
             +    16   0.416667   0.250000  -0.083333   0.0055556  +
             +    17   0.416667   0.250000  -0.250000   0.0055556  +
             +    18   0.416667   0.250000  -0.416667   0.0055556  +
             +    19   0.416667   0.150000   0.416667   0.0055556  +
             +    20   0.416667   0.150000   0.250000   0.0055556  +
             +    21   0.416667   0.150000   0.083333   0.0055556  +
             +    22   0.416667   0.150000  -0.083333   0.0055556  +
             +    23   0.416667   0.150000  -0.250000   0.0055556  +
             +    24   0.416667   0.150000  -0.416667   0.0055556  +
             +    25   0.416667   0.050000   0.416667   0.0055556  +
             +    26   0.416667   0.050000   0.250000   0.0055556  +
             +    27   0.416667   0.050000   0.083333   0.0055556  +
             +    28   0.416667   0.050000  -0.083333   0.0055556  +
             +    29   0.416667   0.050000  -0.250000   0.0055556  +
             +    30   0.416667   0.050000  -0.416667   0.0055556  +
             +    31   0.416667  -0.050000   0.416667   0.0055556  +
             +    32   0.416667  -0.050000   0.250000   0.0055556  +
             +    33   0.416667  -0.050000   0.083333   0.0055556  +
             +    34   0.416667  -0.050000  -0.083333   0.0055556  +
             +    35   0.416667  -0.050000  -0.250000   0.0055556  +
             +    36   0.416667  -0.050000  -0.416667   0.0055556  +
             +    37   0.416667  -0.150000   0.416667   0.0055556  +
             +    38   0.416667  -0.150000   0.250000   0.0055556  +
             +    39   0.416667  -0.150000   0.083333   0.0055556  +
             +    40   0.416667  -0.150000  -0.083333   0.0055556  +
             +    41   0.416667  -0.150000  -0.250000   0.0055556  +
             +    42   0.416667  -0.150000  -0.416667   0.0055556  +
             +    43   0.416667  -0.250000   0.416667   0.0055556  +
             +    44   0.416667  -0.250000   0.250000   0.0055556  +
             +    45   0.416667  -0.250000   0.083333   0.0055556  +
             +    46   0.416667  -0.250000  -0.083333   0.0055556  +
             +    47   0.416667  -0.250000  -0.250000   0.0055556  +
             +    48   0.416667  -0.250000  -0.416667   0.0055556  +
             +    49   0.416667  -0.350000   0.416667   0.0055556  +
             +    50   0.416667  -0.350000   0.250000   0.0055556  +
             +    51   0.416667  -0.350000   0.083333   0.0055556  +
             +    52   0.416667  -0.350000  -0.083333   0.0055556  +
             +    53   0.416667  -0.350000  -0.250000   0.0055556  +
             +    54   0.416667  -0.350000  -0.416667   0.0055556  +
             +    55   0.416667  -0.450000   0.416667   0.0055556  +
             +    56   0.416667  -0.450000   0.250000   0.0055556  +
             +    57   0.416667  -0.450000   0.083333   0.0055556  +
             +    58   0.416667  -0.450000  -0.083333   0.0055556  +
             +    59   0.416667  -0.450000  -0.250000   0.0055556  +
             +    60   0.416667  -0.450000  -0.416667   0.0055556  +
             +    61   0.250000   0.450000   0.416667   0.0055556  +
             +    62   0.250000   0.450000   0.250000   0.0055556  +
             +    63   0.250000   0.450000   0.083333   0.0055556  +
             +    64   0.250000   0.450000  -0.083333   0.0055556  +
             +    65   0.250000   0.450000  -0.250000   0.0055556  +
             +    66   0.250000   0.450000  -0.416667   0.0055556  +
             +    67   0.250000   0.350000   0.416667   0.0055556  +
             +    68   0.250000   0.350000   0.250000   0.0055556  +
             +    69   0.250000   0.350000   0.083333   0.0055556  +
             +    70   0.250000   0.350000  -0.083333   0.0055556  +
             +    71   0.250000   0.350000  -0.250000   0.0055556  +
             +    72   0.250000   0.350000  -0.416667   0.0055556  +
             +    73   0.250000   0.250000   0.416667   0.0055556  +
             +    74   0.250000   0.250000   0.250000   0.0055556  +
             +    75   0.250000   0.250000   0.083333   0.0055556  +
             +    76   0.250000   0.250000  -0.083333   0.0055556  +
             +    77   0.250000   0.250000  -0.250000   0.0055556  +
             +    78   0.250000   0.250000  -0.416667   0.0055556  +
             +    79   0.250000   0.150000   0.416667   0.0055556  +
             +    80   0.250000   0.150000   0.250000   0.0055556  +
             +    81   0.250000   0.150000   0.083333   0.0055556  +
             +    82   0.250000   0.150000  -0.083333   0.0055556  +
             +    83   0.250000   0.150000  -0.250000   0.0055556  +
             +    84   0.250000   0.150000  -0.416667   0.0055556  +
             +    85   0.250000   0.050000   0.416667   0.0055556  +
             +    86   0.250000   0.050000   0.250000   0.0055556  +
             +    87   0.250000   0.050000   0.083333   0.0055556  +
             +    88   0.250000   0.050000  -0.083333   0.0055556  +
             +    89   0.250000   0.050000  -0.250000   0.0055556  +
             +    90   0.250000   0.050000  -0.416667   0.0055556  +
             +    91   0.250000  -0.050000   0.416667   0.0055556  +
             +    92   0.250000  -0.050000   0.250000   0.0055556  +
             +    93   0.250000  -0.050000   0.083333   0.0055556  +
             +    94   0.250000  -0.050000  -0.083333   0.0055556  +
             +    95   0.250000  -0.050000  -0.250000   0.0055556  +
             +    96   0.250000  -0.050000  -0.416667   0.0055556  +
             +    97   0.250000  -0.150000   0.416667   0.0055556  +
             +    98   0.250000  -0.150000   0.250000   0.0055556  +
             +    99   0.250000  -0.150000   0.083333   0.0055556  +
             +   100   0.250000  -0.150000  -0.083333   0.0055556  +
             +   101   0.250000  -0.150000  -0.250000   0.0055556  +
             +   102   0.250000  -0.150000  -0.416667   0.0055556  +
             +   103   0.250000  -0.250000   0.416667   0.0055556  +
             +   104   0.250000  -0.250000   0.250000   0.0055556  +
             +   105   0.250000  -0.250000   0.083333   0.0055556  +
             +   106   0.250000  -0.250000  -0.083333   0.0055556  +
             +   107   0.250000  -0.250000  -0.250000   0.0055556  +
             +   108   0.250000  -0.250000  -0.416667   0.0055556  +
             +   109   0.250000  -0.350000   0.416667   0.0055556  +
             +   110   0.250000  -0.350000   0.250000   0.0055556  +
             +   111   0.250000  -0.350000   0.083333   0.0055556  +
             +   112   0.250000  -0.350000  -0.083333   0.0055556  +
             +   113   0.250000  -0.350000  -0.250000   0.0055556  +
             +   114   0.250000  -0.350000  -0.416667   0.0055556  +
             +   115   0.250000  -0.450000   0.416667   0.0055556  +
             +   116   0.250000  -0.450000   0.250000   0.0055556  +
             +   117   0.250000  -0.450000   0.083333   0.0055556  +
             +   118   0.250000  -0.450000  -0.083333   0.0055556  +
             +   119   0.250000  -0.450000  -0.250000   0.0055556  +
             +   120   0.250000  -0.450000  -0.416667   0.0055556  +
             +   121   0.083333   0.450000   0.416667   0.0055556  +
             +   122   0.083333   0.450000   0.250000   0.0055556  +
             +   123   0.083333   0.450000   0.083333   0.0055556  +
             +   124   0.083333   0.450000  -0.083333   0.0055556  +
             +   125   0.083333   0.450000  -0.250000   0.0055556  +
             +   126   0.083333   0.450000  -0.416667   0.0055556  +
             +   127   0.083333   0.350000   0.416667   0.0055556  +
             +   128   0.083333   0.350000   0.250000   0.0055556  +
             +   129   0.083333   0.350000   0.083333   0.0055556  +
             +   130   0.083333   0.350000  -0.083333   0.0055556  +
             +   131   0.083333   0.350000  -0.250000   0.0055556  +
             +   132   0.083333   0.350000  -0.416667   0.0055556  +
             +   133   0.083333   0.250000   0.416667   0.0055556  +
             +   134   0.083333   0.250000   0.250000   0.0055556  +
             +   135   0.083333   0.250000   0.083333   0.0055556  +
             +   136   0.083333   0.250000  -0.083333   0.0055556  +
             +   137   0.083333   0.250000  -0.250000   0.0055556  +
             +   138   0.083333   0.250000  -0.416667   0.0055556  +
             +   139   0.083333   0.150000   0.416667   0.0055556  +
             +   140   0.083333   0.150000   0.250000   0.0055556  +
             +   141   0.083333   0.150000   0.083333   0.0055556  +
             +   142   0.083333   0.150000  -0.083333   0.0055556  +
             +   143   0.083333   0.150000  -0.250000   0.0055556  +
             +   144   0.083333   0.150000  -0.416667   0.0055556  +
             +   145   0.083333   0.050000   0.416667   0.0055556  +
             +   146   0.083333   0.050000   0.250000   0.0055556  +
             +   147   0.083333   0.050000   0.083333   0.0055556  +
             +   148   0.083333   0.050000  -0.083333   0.0055556  +
             +   149   0.083333   0.050000  -0.250000   0.0055556  +
             +   150   0.083333   0.050000  -0.416667   0.0055556  +
             +   151   0.083333  -0.050000   0.416667   0.0055556  +
             +   152   0.083333  -0.050000   0.250000   0.0055556  +
             +   153   0.083333  -0.050000   0.083333   0.0055556  +
             +   154   0.083333  -0.050000  -0.083333   0.0055556  +
             +   155   0.083333  -0.050000  -0.250000   0.0055556  +
             +   156   0.083333  -0.050000  -0.416667   0.0055556  +
             +   157   0.083333  -0.150000   0.416667   0.0055556  +
             +   158   0.083333  -0.150000   0.250000   0.0055556  +
             +   159   0.083333  -0.150000   0.083333   0.0055556  +
             +   160   0.083333  -0.150000  -0.083333   0.0055556  +
             +   161   0.083333  -0.150000  -0.250000   0.0055556  +
             +   162   0.083333  -0.150000  -0.416667   0.0055556  +
             +   163   0.083333  -0.250000   0.416667   0.0055556  +
             +   164   0.083333  -0.250000   0.250000   0.0055556  +
             +   165   0.083333  -0.250000   0.083333   0.0055556  +
             +   166   0.083333  -0.250000  -0.083333   0.0055556  +
             +   167   0.083333  -0.250000  -0.250000   0.0055556  +
             +   168   0.083333  -0.250000  -0.416667   0.0055556  +
             +   169   0.083333  -0.350000   0.416667   0.0055556  +
             +   170   0.083333  -0.350000   0.250000   0.0055556  +
             +   171   0.083333  -0.350000   0.083333   0.0055556  +
             +   172   0.083333  -0.350000  -0.083333   0.0055556  +
             +   173   0.083333  -0.350000  -0.250000   0.0055556  +
             +   174   0.083333  -0.350000  -0.416667   0.0055556  +
             +   175   0.083333  -0.450000   0.416667   0.0055556  +
             +   176   0.083333  -0.450000   0.250000   0.0055556  +
             +   177   0.083333  -0.450000   0.083333   0.0055556  +
             +   178   0.083333  -0.450000  -0.083333   0.0055556  +
             +   179   0.083333  -0.450000  -0.250000   0.0055556  +
             +   180   0.083333  -0.450000  -0.416667   0.0055556  +
             +++++++++++++++++++++++++++++++++++++++++++++++++++++++
 
                           -------------------------------
                               Symmetry and Constraints
                           -------------------------------
 
         There are no symmetry operations specified or generated for this cell
 
                        Centre of mass is NOT constrained
       There are no ionic constraints specified or generated for this cell
 
                         Number of cell constraints= 6
                         Cell constraints are:  0 0 0 0 0 0
 
                         External pressure/stress (GPa)
                          0.00000   0.00000   0.00000
                                    0.00000   0.00000
                                              0.00000
------------------------------------------------------------------------ <-- SCF
SCF loop      Energy           Fermi           Energy gain       Timer   <-- SCF
                               energy          per atom          (sec)   <-- SCF
------------------------------------------------------------------------ <-- SCF
Initial  -3.68393451E+001  5.02428489E+001                        50.64  <-- SCF
      1  -6.27169998E+002  8.33567804E+000   7.37913317E+001     107.66  <-- SCF
      2  -6.89386881E+002  1.35724678E+000   7.77711029E+000     159.02  <-- SCF
      3  -6.88151519E+002  2.44437111E+000  -1.54420142E-001     229.95  <-- SCF
      4  -6.87658079E+002  3.55710648E+000  -6.16801235E-002     298.98  <-- SCF
      5  -6.87671869E+002  3.60986636E+000   1.72382929E-003     367.23  <-- SCF
      6  -6.87674851E+002  3.63263145E+000   3.72704583E-004     436.59  <-- SCF
      7  -6.87675592E+002  3.63936572E+000   9.26385368E-005     502.83  <-- SCF
      8  -6.87675740E+002  3.64417884E+000   1.85459802E-005     568.45  <-- SCF
      9  -6.87676153E+002  3.64768288E+000   5.15963340E-005     633.28  <-- SCF
     10  -6.87676160E+002  3.64817117E+000   8.63246384E-007     687.94  <-- SCF
     11  -6.87676171E+002  3.64836180E+000   1.35301349E-006     736.59  <-- SCF
     12  -6.87676171E+002  3.64845702E+000   2.50875248E-008     789.78  <-- SCF
     13  -6.87676171E+002  3.64849250E+000   2.30038563E-008     836.09  <-- SCF
------------------------------------------------------------------------ <-- SCF
 
 2*Integrated Spin Density   =    0.227888E-09
 2*Integrated |Spin Density| =    0.506704E-04
 
Final energy, E             =  -687.6761710814     eV
Final free energy (E-TS)    =  -687.6761711367     eV
(energies not corrected for finite basis set)
 
NB est. 0K energy (E-0.5TS) =  -687.6761711090     eV
 
 
 ******************************** Forces *********************************
 *                                                                       *
 *                      Cartesian components (eV/A)                      *
 * --------------------------------------------------------------------- *
 *              x                    y                    z              *
 *                                                                       *
 * H    1      0.00007              0.00000             -0.40979         *
 * H    2      0.00052              0.00000             -0.40762         *
 * H    3      0.00459              0.00000              0.39647         *
 * H    4      0.00479              0.00000              0.39646         *
 * C    1     -0.00848              0.00005             -0.16598         *
 * C    2     -0.00881             -0.00005             -0.15263         *
 * C    3      0.00306             -0.00006              0.16919         *
 * C    4      0.00426              0.00006              0.17390         *
 *                                                                       *
 *************************************************************************
 BFGS: finished iteration   0  with enthalpy= -6.87676171E+002 eV
  
 +-----------+-----------------+-----------------+------------+-----+ <-- BFGS
 | Parameter |      value      |    tolerance    |    units   | OK? | <-- BFGS
 +-----------+-----------------+-----------------+------------+-----+ <-- BFGS
 |  dE/ion   |   0.000000E+000 |   5.000000E-006 |         eV | No  | <-- BFGS
 |  |F|max   |   4.097935E-001 |   1.000000E-002 |       eV/A | No  | <-- BFGS
 |  |dR|max  |   0.000000E+000 |   5.000000E-004 |          A | Yes | <-- BFGS
 +-----------+-----------------+-----------------+------------+-----+ <-- BFGS
  

================================================================================
 Starting BFGS iteration          1 ...
================================================================================
  
 +------------+-------------+-------------+-----------------+ <-- min BFGS
 |    Step    |   lambda    |   F.delta   |    enthalpy     | <-- min BFGS
 +------------+-------------+-------------+-----------------+ <-- min BFGS
 |  previous  |    0.000000 |    0.000419 |     -687.676171 | <-- min BFGS
 +------------+-------------+-------------+-----------------+ <-- min BFGS
  

--------------------------------------------------------------------------------
 BFGS: starting iteration         1 with trial guess (lambda=  1.000000)
--------------------------------------------------------------------------------
 
                           -------------------------------
                                     Cell Contents
                           -------------------------------
 
            xxxxxxxxxxxxxxxxxxxxxxxxxxxxxxxxxxxxxxxxxxxxxxxxxxxxxxxxxxxx
            x  Element    Atom        Fractional coordinates of atoms  x
            x            Number           u          v          w      x
            x----------------------------------------------------------x
            x   H          1         -0.000413   0.000013   0.829239   x
            x   H          2          0.499589   0.500013   0.829248   x
            x   H          3          0.166245   0.500013   0.163149   x
            x   H          4          0.666246   0.000013   0.163149   x
            x   C          1         -0.000422   0.000013   0.553027   x
            x   C          2          0.499576   0.500013   0.553078   x
            x   C          3          0.166221   0.500012   0.439423   x
            x   C          4          0.666225   0.000013   0.439441   x
            xxxxxxxxxxxxxxxxxxxxxxxxxxxxxxxxxxxxxxxxxxxxxxxxxxxxxxxxxxxx
 
 
------------------------------------------------------------------------ <-- SCF
SCF loop      Energy           Fermi           Energy gain       Timer   <-- SCF
                               energy          per atom          (sec)   <-- SCF
------------------------------------------------------------------------ <-- SCF
Initial  -6.87639545E+002  3.50088851E+000                       912.78  <-- SCF
      1  -6.87690720E+002  3.50053032E+000   6.39688331E-003     958.91  <-- SCF
      2  -6.87690779E+002  3.50052986E+000   7.27704987E-006    1008.19  <-- SCF
      3  -6.87686467E+002  3.56826370E+000  -5.38957895E-004    1070.73  <-- SCF
      4  -6.87685727E+002  3.60871574E+000  -9.24917595E-005    1135.70  <-- SCF
      5  -6.87685720E+002  3.61270078E+000  -8.24521384E-007    1194.27  <-- SCF
      6  -6.87685723E+002  3.61402623E+000   2.59047933E-007    1242.75  <-- SCF
      7  -6.87685723E+002  3.61384101E+000   6.11520608E-008    1286.42  <-- SCF
------------------------------------------------------------------------ <-- SCF
 
 2*Integrated Spin Density   =    0.232267E-08
 2*Integrated |Spin Density| =    0.106028E-03
 
Final energy, E             =  -687.6857229926     eV
Final free energy (E-TS)    =  -687.6857230479     eV
(energies not corrected for finite basis set)
 
NB est. 0K energy (E-0.5TS) =  -687.6857230202     eV
 
 
 ******************************** Forces *********************************
 *                                                                       *
 *                      Cartesian components (eV/A)                      *
 * --------------------------------------------------------------------- *
 *              x                    y                    z              *
 *                                                                       *
 * H    1      0.00001              0.00000             -0.28355         *
 * H    2     -0.00006              0.00000             -0.27680         *
 * H    3      0.00492              0.00000              0.27871         *
 * H    4      0.00399              0.00000              0.28114         *
 * C    1     -0.00249              0.00001             -0.09482         *
 * C    2     -0.00238              0.00000             -0.09303         *
 * C    3     -0.00160             -0.00001              0.09172         *
 * C    4     -0.00239              0.00001              0.09665         *
 *                                                                       *
 *************************************************************************
  
 +------------+-------------+-------------+-----------------+ <-- min BFGS
 |    Step    |   lambda    |   F.delta   |    enthalpy     | <-- min BFGS
 +------------+-------------+-------------+-----------------+ <-- min BFGS
 |  previous  |    0.000000 |    0.000419 |     -687.676171 | <-- min BFGS
 | trial step |    1.000000 |    0.000283 |     -687.685723 | <-- min BFGS
 +------------+-------------+-------------+-----------------+ <-- min BFGS
  

--------------------------------------------------------------------------------
 BFGS: improving iteration         1 with line minimization (lambda=  3.094551)
--------------------------------------------------------------------------------
 
                           -------------------------------
                                     Cell Contents
                           -------------------------------
 
            xxxxxxxxxxxxxxxxxxxxxxxxxxxxxxxxxxxxxxxxxxxxxxxxxxxxxxxxxxxx
            x  Element    Atom        Fractional coordinates of atoms  x
            x            Number           u          v          w      x
            x----------------------------------------------------------x
            x   H          1         -0.000412   0.000013   0.826017   x
            x   H          2          0.499593   0.500013   0.826042   x
            x   H          3          0.166278   0.500013   0.166267   x
            x   H          4          0.666280   0.000013   0.166267   x
            x   C          1         -0.000483   0.000014   0.551722   x
            x   C          2          0.499514   0.500012   0.551877   x
            x   C          3          0.166243   0.500012   0.440754   x
            x   C          4          0.666255   0.000014   0.440808   x
            xxxxxxxxxxxxxxxxxxxxxxxxxxxxxxxxxxxxxxxxxxxxxxxxxxxxxxxxxxxx
 
 
------------------------------------------------------------------------ <-- SCF
SCF loop      Energy           Fermi           Energy gain       Timer   <-- SCF
                               energy          per atom          (sec)   <-- SCF
------------------------------------------------------------------------ <-- SCF
Initial  -6.87581495E+002  3.30634788E+000                      1364.61  <-- SCF
      1  -6.87715576E+002  3.30476101E+000   1.67601571E-002    1407.36  <-- SCF
      2  -6.87715836E+002  3.30475895E+000   3.24966405E-005    1456.16  <-- SCF
      3  -6.87696983E+002  3.44583488E+000  -2.35669668E-003    1516.33  <-- SCF
      4  -6.87693697E+002  3.53114858E+000  -4.10660928E-004    1579.53  <-- SCF
      5  -6.87693669E+002  3.53945630E+000  -3.51424210E-006    1642.34  <-- SCF
      6  -6.87693677E+002  3.54246125E+000   1.01124643E-006    1691.53  <-- SCF
      7  -6.87693678E+002  3.54188213E+000   1.26780828E-007    1735.44  <-- SCF
      8  -6.87693680E+002  3.54187122E+000   2.62743028E-007    1776.94  <-- SCF
------------------------------------------------------------------------ <-- SCF
 
 2*Integrated Spin Density   =   -0.106906E-07
 2*Integrated |Spin Density| =    0.585045E-04
 
Final energy, E             =  -687.6936804153     eV
Final free energy (E-TS)    =  -687.6936804706     eV
(energies not corrected for finite basis set)
 
NB est. 0K energy (E-0.5TS) =  -687.6936804429     eV
 
 
 ******************************** Forces *********************************
 *                                                                       *
 *                      Cartesian components (eV/A)                      *
 * --------------------------------------------------------------------- *
 *              x                    y                    z              *
 *                                                                       *
 * H    1      0.00003              0.00000             -0.01001         *
 * H    2     -0.00114             -0.00001              0.00659         *
 * H    3      0.00559             -0.00001              0.02385         *
 * H    4      0.00223              0.00000              0.03171         *
 * C    1      0.01007             -0.00008              0.04836         *
 * C    2      0.01123              0.00009              0.02323         *
 * C    3     -0.01153              0.00009             -0.06428         *
 * C    4     -0.01649             -0.00008             -0.05946         *
 *                                                                       *
 *************************************************************************
  
 +------------+-------------+-------------+-----------------+ <-- min BFGS
 |    Step    |   lambda    |   F.delta   |    enthalpy     | <-- min BFGS
 +------------+-------------+-------------+-----------------+ <-- min BFGS
 |  previous  |    0.000000 |    0.000419 |     -687.676171 | <-- min BFGS
 | trial step |    1.000000 |    0.000283 |     -687.685723 | <-- min BFGS
 |  line step |    3.094551 |   -0.000005 |     -687.693680 | <-- min BFGS
 +------------+-------------+-------------+-----------------+ <-- min BFGS
  
 BFGS: finished iteration   1  with enthalpy= -6.87693680E+002 eV
  
 +-----------+-----------------+-----------------+------------+-----+ <-- BFGS
 | Parameter |      value      |    tolerance    |    units   | OK? | <-- BFGS
 +-----------+-----------------+-----------------+------------+-----+ <-- BFGS
 |  dE/ion   |   2.188667E-003 |   5.000000E-006 |         eV | No  | <-- BFGS
 |  |F|max   |   6.530121E-002 |   1.000000E-002 |       eV/A | No  | <-- BFGS
 |  |dR|max  |   1.904481E-002 |   5.000000E-004 |          A | No  | <-- BFGS
 +-----------+-----------------+-----------------+------------+-----+ <-- BFGS
  

================================================================================
 Starting BFGS iteration          2 ...
================================================================================
  
 +------------+-------------+-------------+-----------------+ <-- min BFGS
 |    Step    |   lambda    |   F.delta   |    enthalpy     | <-- min BFGS
 +------------+-------------+-------------+-----------------+ <-- min BFGS
 |  previous  |    0.000000 |    0.000007 |     -687.693680 | <-- min BFGS
 +------------+-------------+-------------+-----------------+ <-- min BFGS
  

--------------------------------------------------------------------------------
 BFGS: starting iteration         2 with trial guess (lambda=  1.000000)
--------------------------------------------------------------------------------
 
                           -------------------------------
                                     Cell Contents
                           -------------------------------
 
            xxxxxxxxxxxxxxxxxxxxxxxxxxxxxxxxxxxxxxxxxxxxxxxxxxxxxxxxxxxx
            x  Element    Atom        Fractional coordinates of atoms  x
            x            Number           u          v          w      x
            x----------------------------------------------------------x
            x   H          1         -0.000412   0.000013   0.825995   x
            x   H          2          0.499589   0.500013   0.826081   x
            x   H          3          0.166297   0.500013   0.166341   x
            x   H          4          0.666288   0.000013   0.166370   x
            x   C          1         -0.000449   0.000013   0.551907   x
            x   C          2          0.499552   0.500012   0.551969   x
            x   C          3          0.166204   0.500012   0.440509   x
            x   C          4          0.666200   0.000013   0.440582   x
            xxxxxxxxxxxxxxxxxxxxxxxxxxxxxxxxxxxxxxxxxxxxxxxxxxxxxxxxxxxx
 
 
------------------------------------------------------------------------ <-- SCF
SCF loop      Energy           Fermi           Energy gain       Timer   <-- SCF
                               energy          per atom          (sec)   <-- SCF
------------------------------------------------------------------------ <-- SCF
Initial  -6.87693190E+002  3.56166993E+000                      1859.00  <-- SCF
      1  -6.87693930E+002  3.56162006E+000   9.24663874E-005    1905.34  <-- SCF
      2  -6.87693933E+002  3.56161958E+000   3.18848874E-007    1944.34  <-- SCF
      3  -6.87693781E+002  3.55585727E+000  -1.89012653E-005    2007.47  <-- SCF
      4  -6.87693749E+002  3.55215783E+000  -4.04799312E-006    2069.92  <-- SCF
      5  -6.87693749E+002  3.55193634E+000  -1.85984830E-008    2113.97  <-- SCF
      6  -6.87693749E+002  3.55187526E+000   9.83759627E-009    2155.69  <-- SCF
------------------------------------------------------------------------ <-- SCF
 
 2*Integrated Spin Density   =    0.134864E-06
 2*Integrated |Spin Density| =    0.319007E-03
 
Final energy, E             =  -687.6937489772     eV
Final free energy (E-TS)    =  -687.6937490325     eV
(energies not corrected for finite basis set)
 
NB est. 0K energy (E-0.5TS) =  -687.6937490048     eV
 
 
 ******************************** Forces *********************************
 *                                                                       *
 *                      Cartesian components (eV/A)                      *
 * --------------------------------------------------------------------- *
 *              x                    y                    z              *
 *                                                                       *
 * H    1      0.00063              0.00000              0.00904         *
 * H    2     -0.00081              0.00000              0.00788         *
 * H    3      0.00378              0.00000             -0.00938         *
 * H    4      0.00247              0.00000             -0.00366         *
 * C    1     -0.00064             -0.00001             -0.02018         *
 * C    2     -0.00210              0.00002             -0.01556         *
 * C    3     -0.00222              0.00002              0.01569         *
 * C    4     -0.00111             -0.00001              0.01617         *
 *                                                                       *
 *************************************************************************
  
 +------------+-------------+-------------+-----------------+ <-- min BFGS
 |    Step    |   lambda    |   F.delta   |    enthalpy     | <-- min BFGS
 +------------+-------------+-------------+-----------------+ <-- min BFGS
 |  previous  |    0.000000 |    0.000007 |     -687.693680 | <-- min BFGS
 | trial step |    1.000000 |   -0.000002 |     -687.693749 | <-- min BFGS
 +------------+-------------+-------------+-----------------+ <-- min BFGS
  
 BFGS: finished iteration   2  with enthalpy= -6.87693749E+002 eV
  
 +-----------+-----------------+-----------------+------------+-----+ <-- BFGS
 | Parameter |      value      |    tolerance    |    units   | OK? | <-- BFGS
 +-----------+-----------------+-----------------+------------+-----+ <-- BFGS
 |  dE/ion   |   8.570238E-006 |   5.000000E-006 |         eV | No  | <-- BFGS
 |  |F|max   |   2.019034E-002 |   1.000000E-002 |       eV/A | No  | <-- BFGS
 |  |dR|max  |   9.928050E-004 |   5.000000E-004 |          A | No  | <-- BFGS
 +-----------+-----------------+-----------------+------------+-----+ <-- BFGS
  

================================================================================
 Starting BFGS iteration          3 ...
================================================================================
  
 +------------+-------------+-------------+-----------------+ <-- min BFGS
 |    Step    |   lambda    |   F.delta   |    enthalpy     | <-- min BFGS
 +------------+-------------+-------------+-----------------+ <-- min BFGS
 |  previous  |    0.000000 |    0.000001 |     -687.693749 | <-- min BFGS
 +------------+-------------+-------------+-----------------+ <-- min BFGS
  

--------------------------------------------------------------------------------
 BFGS: starting iteration         3 with trial guess (lambda=  1.000000)
--------------------------------------------------------------------------------
 
                           -------------------------------
                                     Cell Contents
                           -------------------------------
 
            xxxxxxxxxxxxxxxxxxxxxxxxxxxxxxxxxxxxxxxxxxxxxxxxxxxxxxxxxxxx
            x  Element    Atom        Fractional coordinates of atoms  x
            x            Number           u          v          w      x
            x----------------------------------------------------------x
            x   H          1         -0.000410   0.000013   0.826029   x
            x   H          2          0.499587   0.500013   0.826114   x
            x   H          3          0.166307   0.500013   0.166307   x
            x   H          4          0.666294   0.000013   0.166353   x
            x   C          1         -0.000450   0.000013   0.551855   x
            x   C          2          0.499547   0.500013   0.551928   x
            x   C          3          0.166197   0.500012   0.440547   x
            x   C          4          0.666196   0.000013   0.440621   x
            xxxxxxxxxxxxxxxxxxxxxxxxxxxxxxxxxxxxxxxxxxxxxxxxxxxxxxxxxxxx
 
 
------------------------------------------------------------------------ <-- SCF
SCF loop      Energy           Fermi           Energy gain       Timer   <-- SCF
                               energy          per atom          (sec)   <-- SCF
------------------------------------------------------------------------ <-- SCF
Initial  -6.87694369E+002  3.54844071E+000                      2232.23  <-- SCF
      1  -6.87693764E+002  3.54843873E+000  -7.56805038E-005    2285.33  <-- SCF
      2  -6.87693764E+002  3.54843873E+000   1.43739752E-008    2314.22  <-- SCF
      3  -6.87693759E+002  3.54913509E+000  -6.48052153E-007    2358.42  <-- SCF
      4  -6.87693757E+002  3.54970844E+000  -1.83454635E-007    2401.72  <-- SCF
      5  -6.87693757E+002  3.54966798E+000   3.00465274E-008    2444.89  <-- SCF
------------------------------------------------------------------------ <-- SCF
 
 2*Integrated Spin Density   =    0.105140E-06
 2*Integrated |Spin Density| =    0.476204E-04
 
Final energy, E             =  -687.6937574323     eV
Final free energy (E-TS)    =  -687.6937574876     eV
(energies not corrected for finite basis set)
 
NB est. 0K energy (E-0.5TS) =  -687.6937574599     eV
 
 
 ******************************** Forces *********************************
 *                                                                       *
 *                      Cartesian components (eV/A)                      *
 * --------------------------------------------------------------------- *
 *              x                    y                    z              *
 *                                                                       *
 * H    1      0.00064              0.00000             -0.00044         *
 * H    2     -0.00084              0.00000             -0.00007         *
 * H    3      0.00357              0.00000             -0.00194         *
 * H    4      0.00215              0.00000              0.00185         *
 * C    1     -0.00142              0.00000             -0.00106         *
 * C    2     -0.00218              0.00001              0.00064         *
 * C    3     -0.00100              0.00000             -0.00086         *
 * C    4     -0.00092              0.00000              0.00189         *
 *                                                                       *
 *************************************************************************
  
 +------------+-------------+-------------+-----------------+ <-- min BFGS
 |    Step    |   lambda    |   F.delta   |    enthalpy     | <-- min BFGS
 +------------+-------------+-------------+-----------------+ <-- min BFGS
 |  previous  |    0.000000 |    0.000001 |     -687.693749 | <-- min BFGS
 | trial step |    1.000000 |    0.000000 |     -687.693757 | <-- min BFGS
 +------------+-------------+-------------+-----------------+ <-- min BFGS
  
 BFGS: finished iteration   3  with enthalpy= -6.87693757E+002 eV
  
 +-----------+-----------------+-----------------+------------+-----+ <-- BFGS
 | Parameter |      value      |    tolerance    |    units   | OK? | <-- BFGS
 +-----------+-----------------+-----------------+------------+-----+ <-- BFGS
 |  dE/ion   |   1.056888E-006 |   5.000000E-006 |         eV | Yes | <-- BFGS
 |  |F|max   |   4.063744E-003 |   1.000000E-002 |       eV/A | Yes | <-- BFGS
 |  |dR|max  |   2.081627E-004 |   5.000000E-004 |          A | Yes | <-- BFGS
 +-----------+-----------------+-----------------+------------+-----+ <-- BFGS
  
 BFGS: Geometry optimization completed successfully.

================================================================================
 BFGS: Final Configuration:
================================================================================
 
                           -------------------------------
                                     Cell Contents
                           -------------------------------
 
            xxxxxxxxxxxxxxxxxxxxxxxxxxxxxxxxxxxxxxxxxxxxxxxxxxxxxxxxxxxx
            x  Element    Atom        Fractional coordinates of atoms  x
            x            Number           u          v          w      x
            x----------------------------------------------------------x
            x   H          1         -0.000410   0.000013   0.826029   x
            x   H          2          0.499587   0.500013   0.826114   x
            x   H          3          0.166307   0.500013   0.166307   x
            x   H          4          0.666294   0.000013   0.166353   x
            x   C          1         -0.000450   0.000013   0.551855   x
            x   C          2          0.499547   0.500013   0.551928   x
            x   C          3          0.166197   0.500012   0.440547   x
            x   C          4          0.666196   0.000013   0.440621   x
            xxxxxxxxxxxxxxxxxxxxxxxxxxxxxxxxxxxxxxxxxxxxxxxxxxxxxxxxxxxx
 
 
 BFGS: Final Enthalpy     = -6.87693757E+002 eV
 BFGS: Final <frequency>  =  1.90878317E+003 cm-1
 
 ******************************** Forces *********************************
 *                                                                       *
 *                      Cartesian components (eV/A)                      *
 * --------------------------------------------------------------------- *
 *              x                    y                    z              *
 *                                                                       *
 * H    1      0.00064              0.00000             -0.00044         *
 * H    2     -0.00084              0.00000             -0.00007         *
 * H    3      0.00357              0.00000             -0.00194         *
 * H    4      0.00215              0.00000              0.00185         *
 * C    1     -0.00142              0.00000             -0.00106         *
 * C    2     -0.00218              0.00001              0.00064         *
 * C    3     -0.00100              0.00000             -0.00086         *
 * C    4     -0.00092              0.00000              0.00189         *
 *                                                                       *
 *************************************************************************
 
Writing model to CH-chair_c04x00.check                                                                                                                                                                                                                                           
Initialisation time =     33.17
Calculation time    =   2440.41
Finalisation time   =      1.48
Total time          =   2475.06
