 +-------------------------------------------------+
 |                                                 |
 |      CCC   AA    SSS  TTTTT  EEEEE  PPPP        |
 |     C     A  A  S       T    E      P   P       |
 |     C     AAAA   SS     T    EEE    PPPP        |
 |     C     A  A     S    T    E      P           |
 |      CCC  A  A  SSS     T    EEEEE  P           |
 |                                                 |
 +-------------------------------------------------+
 |                                                 |
 | Welcome to Academic Release CASTEP version 16.1 |          
 | Ab Initio Total Energy Program                  |
 |                                                 |
 | Authors:                                        |
 | M. Segall, M. Probert, C. Pickard, P. Hasnip,   |
 | S. Clark, K. Refson, J. R. Yates, M. Payne      |
 |                                                 |
 | Contributors:                                   |
 | P. Lindan, P. Haynes, J. White, V. Milman,      |
 | N. Govind, M. Gibson, P. Tulip, V. Cocula,      |
 | B. Montanari, D. Quigley, M. Glover,            |
 | L. Bernasconi, A. Perlov, M. Plummer,           |
 | E. McNellis, J. Meyer, J. Gale, D. Jochym       |
 | J. Aarons, B. Walker, R. Gillen, D. Jones       |
 | T. Green, I. J. Bush, C. J. Armstrong,          |
 | E. J. Higgins, E. L. Brown, M. S. McFly         |
 |                                                 |
 | Copyright (c) 2000 - 2015                       |
 |                                                 |
 |     Distributed under the terms of an           |
 |     Agreement between the United Kingdom        |
 |     Car-Parrinello (UKCP) Consortium,           |
 |     Daresbury Laboratory and Accelrys, Inc.     |
 |                                                 |
 | Please cite                                     |
 |                                                 |
 |     "First principles methods using CASTEP"     |
 |                                                 |
 |         Zeitschrift fuer Kristallographie       |
 |           220(5-6) pp. 567-570 (2005)           |
 |                                                 |
 | S. J. Clark, M. D. Segall, C. J. Pickard,       |
 | P. J. Hasnip, M. J. Probert, K. Refson,         |
 | M. C. Payne                                     |
 |                                                 |
 |       in all publications arising from          |
 |              your use of CASTEP                 |
 |                                                 |
 +-------------------------------------------------+


 Compiled for darwin_x86_64_gfortran5.0 on Fri, 19 Feb 2016 13:44:46 +0000
 from code version Version unavailable
 Compiler: GNU Fortran 5.3.0; Optimisation: intermediate
 MATHLIBS: default (LAPACK version 3.2.1)
 FFT Lib : default
 Fundamental constants values: CODATA 2010

 Run started: Mon, 22 Feb 2016 15:08:43 +0000

 ******************************* User Parameters *******************************
iprint                : 3            # verbosity control (I)
task                  : single point # type of calculation (S)
calculatedensdiff     : T            # calculate density difference based on atoms (L)
writeformatteddensity : T            # formatted density on/off (L)
optstrategy           : speed        # optimization strategy (S)
xcfunctional          : b3lyp        # exchange-correlation functional (S)
basisprecision        : MEDIUM       # accuracy of basis set (S)
fixoccupancy          : T            # treat system as an insulator (L)
numdumpcycles         : 0            # frequency of wavefunction dumps (I)

 *******************************************************************************
  

 Pseudo atomic calculation performed for Si 3s2 3p2

 Converged in 16 iterations to a total energy of -101.8630 eV

Initialising basis set.

Standard grid dimensions:  16  16  16
Fine grid dimensions:      16  16  16

Plane wave load balancing: max    265 min    243 average    252
True cut-off energy of basis :   7.332
 Calculation not parallelised.

 ************************************ Title ************************************
 

 ***************************** General Parameters ******************************
  
 output verbosity                               : extreme (3)
 write checkpoint data to                       : Si2_sp.check
 type of calculation                            : single point energy
 stress calculation                             : off
 density difference calculation                 : on
 electron localisation func (ELF) calculation   : off
 Hirshfeld analysis                             : off
 unlimited duration calculation
 timing information                             : on
 memory usage estimate                          : on
 write final potential to formatted file        : off
 write final density to formatted file          : on
 write BibTeX reference list                    : on
 write OTFG pseudopotential files               : on
 checkpoint writing                             : both castep_bin and check files
  
 output         length unit                     : A
 output           mass unit                     : amu
 output           time unit                     : ps
 output         charge unit                     : e
 output           spin unit                     : hbar/2
 output         energy unit                     : eV
 output          force unit                     : eV/A
 output       velocity unit                     : A/ps
 output       pressure unit                     : GPa
 output     inv_length unit                     : 1/A
 output      frequency unit                     : cm-1
 output force constant unit                     : eV/A**2
 output         volume unit                     : A**3
 output   IR intensity unit                     : (D/A)**2/amu
 output         dipole unit                     : D
 output         efield unit                     : eV/A/e
 output        entropy unit                     : J/mol/K
  
 wavefunctions paging                           : none
 random number generator seed                   : randomised (150843531)
 data distribution                              : optimal for this architecture
 optimization strategy                          : maximize speed(+++)

 *********************** Exchange-Correlation Parameters ***********************
  
 using functional                               : hybrid B3LYP
 relativistic treatment                         : Koelling-Harmon
 DFT+D: Semi-empirical dispersion correction    : off

 ************************* Pseudopotential Parameters **************************
  
 pseudopotential representation                 : reciprocal space
 <beta|phi> representation                      : reciprocal space
 spin-orbit coupling                            : off

 **************************** Basis Set Parameters *****************************
  
 basis set accuracy                             : MEDIUM
 plane wave basis set cut-off                   :   200.0000   eV
 size of standard grid                          :     1.7500
 size of   fine   gmax                          :    12.6792   1/A
 finite basis set correction                    : none

 **************************** Electronic Parameters ****************************
  
 number of  electrons                           :  8.000    
 net charge of system                           :  0.000    
 treating system as non-spin-polarized
 number of bands                                :          4

 ********************* Electronic Minimization Parameters **********************
  
 Method: Treating system as non-metallic,
         and number of  SD  steps               :          1
         and number of  CG  steps               :          4
  
 total energy / atom convergence tol.           : 0.1000E-04   eV
 max force / atom convergence tol.              : ignored
 convergence tolerance window                   :          3   cycles
 max. number of SCF cycles                      :         30
 periodic dipole correction                     : NONE

 *********************** Population Analysis Parameters ************************
  
 Population analysis with cutoff                :  3.000       A

 *******************************************************************************
  

                           -------------------------------
                                      Unit Cell
                           -------------------------------
        Real Lattice(A)                      Reciprocal Lattice(1/A)
   2.6954645   2.6954645   0.0000000        1.1655107   1.1655107  -1.1655107
   2.6954645   0.0000000   2.6954645        1.1655107  -1.1655107   1.1655107
   0.0000000   2.6954645   2.6954645       -1.1655107   1.1655107   1.1655107

                       Lattice parameters(A)       Cell Angles
                    a =    3.811962          alpha =   60.000000
                    b =    3.811962          beta  =   60.000000
                    c =    3.811962          gamma =   60.000000

                       Current cell volume =   39.167950       A**3

                           -------------------------------
                                     Cell Contents
                           -------------------------------
                         Total number of ions in cell =    2
                      Total number of species in cell =    1
                        Max number of any one species =    2

            xxxxxxxxxxxxxxxxxxxxxxxxxxxxxxxxxxxxxxxxxxxxxxxxxxxxxxxxxxxx
            x  Element    Atom        Fractional coordinates of atoms  x
            x            Number           u          v          w      x
            x----------------------------------------------------------x
            x  Si           1         0.000000   0.000000   0.000000   x 
            x  Si           2         0.250000   0.250000   0.250000   x 
            xxxxxxxxxxxxxxxxxxxxxxxxxxxxxxxxxxxxxxxxxxxxxxxxxxxxxxxxxxxx


                         No user defined ionic velocities

                           -------------------------------
                                   Details of Species
                           -------------------------------

                               Mass of species in AMU
                                    Si   28.0855000

                          Electric Quadrupole Moment (Barn)
                                    Si    1.0000000 No Isotope Defined

                          Files used for pseudopotentials:
                                    Si Si_00.recpot

                           -------------------------------
                              k-Points For BZ Sampling
                           -------------------------------
                       MP grid size for SCF calculation is  4  4  4
                            with an offset of   0.000  0.000  0.000
                       Number of kpoints used =            10

             +++++++++++++++++++++++++++++++++++++++++++++++++++++++
             +  Number       Fractional coordinates        Weight  +
             +-----------------------------------------------------+
             +     1  -0.375000  -0.125000  -0.375000   0.0937500  +
             +     2  -0.375000   0.375000   0.375000   0.0937500  +
             +     3  -0.125000  -0.375000  -0.125000   0.0937500  +
             +     4  -0.125000   0.375000   0.375000   0.0937500  +
             +     5   0.125000  -0.375000  -0.125000   0.1875000  +
             +     6   0.125000  -0.375000   0.125000   0.0937500  +
             +     7   0.125000  -0.125000  -0.125000   0.0937500  +
             +     8   0.125000   0.125000   0.125000   0.0312500  +
             +     9   0.375000  -0.375000   0.125000   0.1875000  +
             +    10   0.375000   0.375000   0.375000   0.0312500  +
             +++++++++++++++++++++++++++++++++++++++++++++++++++++++

                           -------------------------------
                               Symmetry and Constraints
                           -------------------------------

                      Maximum deviation from symmetry =  0.00000         ANG

                      Number of symmetry operations   =          48
                      Number of ionic constraints     =           3
                      Point group of crystal =    32: Oh, m-3m, 4/m -3 2/m
                      Space group of crystal =   227: Fd-3m, F 4d 2 3 -1d

                    1 rotation    
                 (   1.00000000000   0.00000000000   0.00000000000 )
                 (   0.00000000000   1.00000000000   0.00000000000 )
                 (   0.00000000000   0.00000000000   1.00000000000 )
                    1 displacement
                 (   0.00000000000   0.00000000000  -0.00000000000 )
                      symmetry related atoms: 
             Si:    1    2

                    2 rotation    
                 (   0.00000000000   0.00000000000   1.00000000000 )
                 (   0.00000000000   1.00000000000   0.00000000000 )
                 (  -1.00000000000   0.00000000000   0.00000000000 )
                    2 displacement
                 (   0.25000000000   0.25000000000   0.25000000000 )
                      symmetry related atoms: 
             Si:    2    1

                    3 rotation    
                 (  -1.00000000000   0.00000000000   0.00000000000 )
                 (   0.00000000000   1.00000000000   0.00000000000 )
                 (   0.00000000000   0.00000000000  -1.00000000000 )
                    3 displacement
                 (   0.00000000000   0.00000000000  -0.00000000000 )
                      symmetry related atoms: 
             Si:    1    2

                    4 rotation    
                 (   0.00000000000   0.00000000000  -1.00000000000 )
                 (   0.00000000000   1.00000000000   0.00000000000 )
                 (   1.00000000000   0.00000000000   0.00000000000 )
                    4 displacement
                 (   0.25000000000   0.25000000000   0.25000000000 )
                      symmetry related atoms: 
             Si:    2    1

                    5 rotation    
                 (  -1.00000000000   0.00000000000   0.00000000000 )
                 (   0.00000000000  -1.00000000000   0.00000000000 )
                 (   0.00000000000   0.00000000000   1.00000000000 )
                    5 displacement
                 (   0.00000000000   0.00000000000  -0.00000000000 )
                      symmetry related atoms: 
             Si:    1    2

                    6 rotation    
                 (   0.00000000000   0.00000000000   1.00000000000 )
                 (   0.00000000000  -1.00000000000   0.00000000000 )
                 (   1.00000000000   0.00000000000   0.00000000000 )
                    6 displacement
                 (   0.25000000000   0.25000000000   0.25000000000 )
                      symmetry related atoms: 
             Si:    2    1

                    7 rotation    
                 (   1.00000000000   0.00000000000   0.00000000000 )
                 (   0.00000000000  -1.00000000000   0.00000000000 )
                 (   0.00000000000   0.00000000000  -1.00000000000 )
                    7 displacement
                 (   0.00000000000   0.00000000000  -0.00000000000 )
                      symmetry related atoms: 
             Si:    1    2

                    8 rotation    
                 (   0.00000000000   0.00000000000  -1.00000000000 )
                 (   0.00000000000  -1.00000000000   0.00000000000 )
                 (  -1.00000000000   0.00000000000   0.00000000000 )
                    8 displacement
                 (   0.25000000000   0.25000000000   0.25000000000 )
                      symmetry related atoms: 
             Si:    2    1

                    9 rotation    
                 (   0.00000000000  -1.00000000000   0.00000000000 )
                 (   0.00000000000   0.00000000000   1.00000000000 )
                 (  -1.00000000000   0.00000000000   0.00000000000 )
                    9 displacement
                 (   0.00000000000   0.00000000000  -0.00000000000 )
                      symmetry related atoms: 
             Si:    1    2

                   10 rotation    
                 (  -1.00000000000   0.00000000000   0.00000000000 )
                 (   0.00000000000   0.00000000000   1.00000000000 )
                 (   0.00000000000   1.00000000000   0.00000000000 )
                   10 displacement
                 (   0.25000000000   0.25000000000   0.25000000000 )
                      symmetry related atoms: 
             Si:    2    1

                   11 rotation    
                 (   0.00000000000   1.00000000000   0.00000000000 )
                 (   0.00000000000   0.00000000000   1.00000000000 )
                 (   1.00000000000   0.00000000000   0.00000000000 )
                   11 displacement
                 (   0.00000000000   0.00000000000  -0.00000000000 )
                      symmetry related atoms: 
             Si:    1    2

                   12 rotation    
                 (   1.00000000000   0.00000000000   0.00000000000 )
                 (   0.00000000000   0.00000000000   1.00000000000 )
                 (   0.00000000000  -1.00000000000   0.00000000000 )
                   12 displacement
                 (   0.25000000000   0.25000000000   0.25000000000 )
                      symmetry related atoms: 
             Si:    2    1

                   13 rotation    
                 (   0.00000000000   1.00000000000   0.00000000000 )
                 (   0.00000000000   0.00000000000  -1.00000000000 )
                 (  -1.00000000000   0.00000000000   0.00000000000 )
                   13 displacement
                 (   0.00000000000   0.00000000000  -0.00000000000 )
                      symmetry related atoms: 
             Si:    1    2

                   14 rotation    
                 (  -1.00000000000   0.00000000000   0.00000000000 )
                 (   0.00000000000   0.00000000000  -1.00000000000 )
                 (   0.00000000000  -1.00000000000   0.00000000000 )
                   14 displacement
                 (   0.25000000000   0.25000000000   0.25000000000 )
                      symmetry related atoms: 
             Si:    2    1

                   15 rotation    
                 (   0.00000000000  -1.00000000000   0.00000000000 )
                 (   0.00000000000   0.00000000000  -1.00000000000 )
                 (   1.00000000000   0.00000000000   0.00000000000 )
                   15 displacement
                 (   0.00000000000   0.00000000000  -0.00000000000 )
                      symmetry related atoms: 
             Si:    1    2

                   16 rotation    
                 (   1.00000000000   0.00000000000   0.00000000000 )
                 (   0.00000000000   0.00000000000  -1.00000000000 )
                 (   0.00000000000   1.00000000000   0.00000000000 )
                   16 displacement
                 (   0.25000000000   0.25000000000   0.25000000000 )
                      symmetry related atoms: 
             Si:    2    1

                   17 rotation    
                 (   0.00000000000   0.00000000000  -1.00000000000 )
                 (  -1.00000000000   0.00000000000   0.00000000000 )
                 (   0.00000000000   1.00000000000   0.00000000000 )
                   17 displacement
                 (   0.00000000000   0.00000000000  -0.00000000000 )
                      symmetry related atoms: 
             Si:    1    2

                   18 rotation    
                 (   0.00000000000   1.00000000000   0.00000000000 )
                 (  -1.00000000000   0.00000000000   0.00000000000 )
                 (   0.00000000000   0.00000000000   1.00000000000 )
                   18 displacement
                 (   0.25000000000   0.25000000000   0.25000000000 )
                      symmetry related atoms: 
             Si:    2    1

                   19 rotation    
                 (   0.00000000000   0.00000000000   1.00000000000 )
                 (  -1.00000000000   0.00000000000   0.00000000000 )
                 (   0.00000000000  -1.00000000000   0.00000000000 )
                   19 displacement
                 (   0.00000000000   0.00000000000  -0.00000000000 )
                      symmetry related atoms: 
             Si:    1    2

                   20 rotation    
                 (   0.00000000000  -1.00000000000   0.00000000000 )
                 (  -1.00000000000   0.00000000000   0.00000000000 )
                 (   0.00000000000   0.00000000000  -1.00000000000 )
                   20 displacement
                 (   0.25000000000   0.25000000000   0.25000000000 )
                      symmetry related atoms: 
             Si:    2    1

                   21 rotation    
                 (   0.00000000000   0.00000000000   1.00000000000 )
                 (   1.00000000000   0.00000000000   0.00000000000 )
                 (   0.00000000000   1.00000000000   0.00000000000 )
                   21 displacement
                 (   0.00000000000   0.00000000000  -0.00000000000 )
                      symmetry related atoms: 
             Si:    1    2

                   22 rotation    
                 (   0.00000000000   1.00000000000   0.00000000000 )
                 (   1.00000000000   0.00000000000   0.00000000000 )
                 (   0.00000000000   0.00000000000  -1.00000000000 )
                   22 displacement
                 (   0.25000000000   0.25000000000   0.25000000000 )
                      symmetry related atoms: 
             Si:    2    1

                   23 rotation    
                 (   0.00000000000   0.00000000000  -1.00000000000 )
                 (   1.00000000000   0.00000000000   0.00000000000 )
                 (   0.00000000000  -1.00000000000   0.00000000000 )
                   23 displacement
                 (   0.00000000000   0.00000000000  -0.00000000000 )
                      symmetry related atoms: 
             Si:    1    2

                   24 rotation    
                 (   0.00000000000  -1.00000000000   0.00000000000 )
                 (   1.00000000000   0.00000000000   0.00000000000 )
                 (   0.00000000000   0.00000000000   1.00000000000 )
                   24 displacement
                 (   0.25000000000   0.25000000000   0.25000000000 )
                      symmetry related atoms: 
             Si:    2    1

                   25 rotation    
                 (  -1.00000000000   0.00000000000   0.00000000000 )
                 (   0.00000000000  -1.00000000000   0.00000000000 )
                 (   0.00000000000   0.00000000000  -1.00000000000 )
                   25 displacement
                 (   0.25000000000   0.25000000000   0.25000000000 )
                      symmetry related atoms: 
             Si:    2    1

                   26 rotation    
                 (   0.00000000000   0.00000000000  -1.00000000000 )
                 (   0.00000000000  -1.00000000000   0.00000000000 )
                 (   1.00000000000   0.00000000000   0.00000000000 )
                   26 displacement
                 (   0.00000000000   0.00000000000  -0.00000000000 )
                      symmetry related atoms: 
             Si:    1    2

                   27 rotation    
                 (   1.00000000000   0.00000000000   0.00000000000 )
                 (   0.00000000000  -1.00000000000   0.00000000000 )
                 (   0.00000000000   0.00000000000   1.00000000000 )
                   27 displacement
                 (   0.25000000000   0.25000000000   0.25000000000 )
                      symmetry related atoms: 
             Si:    2    1

                   28 rotation    
                 (   0.00000000000   0.00000000000   1.00000000000 )
                 (   0.00000000000  -1.00000000000   0.00000000000 )
                 (  -1.00000000000   0.00000000000   0.00000000000 )
                   28 displacement
                 (   0.00000000000   0.00000000000  -0.00000000000 )
                      symmetry related atoms: 
             Si:    1    2

                   29 rotation    
                 (   1.00000000000   0.00000000000   0.00000000000 )
                 (   0.00000000000   1.00000000000   0.00000000000 )
                 (   0.00000000000   0.00000000000  -1.00000000000 )
                   29 displacement
                 (   0.25000000000   0.25000000000   0.25000000000 )
                      symmetry related atoms: 
             Si:    2    1

                   30 rotation    
                 (   0.00000000000   0.00000000000  -1.00000000000 )
                 (   0.00000000000   1.00000000000   0.00000000000 )
                 (  -1.00000000000   0.00000000000   0.00000000000 )
                   30 displacement
                 (   0.00000000000   0.00000000000  -0.00000000000 )
                      symmetry related atoms: 
             Si:    1    2

                   31 rotation    
                 (  -1.00000000000   0.00000000000   0.00000000000 )
                 (   0.00000000000   1.00000000000   0.00000000000 )
                 (   0.00000000000   0.00000000000   1.00000000000 )
                   31 displacement
                 (   0.25000000000   0.25000000000   0.25000000000 )
                      symmetry related atoms: 
             Si:    2    1

                   32 rotation    
                 (   0.00000000000   0.00000000000   1.00000000000 )
                 (   0.00000000000   1.00000000000   0.00000000000 )
                 (   1.00000000000   0.00000000000   0.00000000000 )
                   32 displacement
                 (   0.00000000000   0.00000000000  -0.00000000000 )
                      symmetry related atoms: 
             Si:    1    2

                   33 rotation    
                 (   0.00000000000   1.00000000000   0.00000000000 )
                 (   0.00000000000   0.00000000000  -1.00000000000 )
                 (   1.00000000000   0.00000000000   0.00000000000 )
                   33 displacement
                 (   0.25000000000   0.25000000000   0.25000000000 )
                      symmetry related atoms: 
             Si:    2    1

                   34 rotation    
                 (   1.00000000000   0.00000000000   0.00000000000 )
                 (   0.00000000000   0.00000000000  -1.00000000000 )
                 (   0.00000000000  -1.00000000000   0.00000000000 )
                   34 displacement
                 (   0.00000000000   0.00000000000  -0.00000000000 )
                      symmetry related atoms: 
             Si:    1    2

                   35 rotation    
                 (   0.00000000000  -1.00000000000   0.00000000000 )
                 (   0.00000000000   0.00000000000  -1.00000000000 )
                 (  -1.00000000000   0.00000000000   0.00000000000 )
                   35 displacement
                 (   0.25000000000   0.25000000000   0.25000000000 )
                      symmetry related atoms: 
             Si:    2    1

                   36 rotation    
                 (  -1.00000000000   0.00000000000   0.00000000000 )
                 (   0.00000000000   0.00000000000  -1.00000000000 )
                 (   0.00000000000   1.00000000000   0.00000000000 )
                   36 displacement
                 (   0.00000000000   0.00000000000  -0.00000000000 )
                      symmetry related atoms: 
             Si:    1    2

                   37 rotation    
                 (   0.00000000000  -1.00000000000   0.00000000000 )
                 (   0.00000000000   0.00000000000   1.00000000000 )
                 (   1.00000000000   0.00000000000   0.00000000000 )
                   37 displacement
                 (   0.25000000000   0.25000000000   0.25000000000 )
                      symmetry related atoms: 
             Si:    2    1

                   38 rotation    
                 (   1.00000000000   0.00000000000   0.00000000000 )
                 (   0.00000000000   0.00000000000   1.00000000000 )
                 (   0.00000000000   1.00000000000   0.00000000000 )
                   38 displacement
                 (   0.00000000000   0.00000000000  -0.00000000000 )
                      symmetry related atoms: 
             Si:    1    2

                   39 rotation    
                 (   0.00000000000   1.00000000000   0.00000000000 )
                 (   0.00000000000   0.00000000000   1.00000000000 )
                 (  -1.00000000000   0.00000000000   0.00000000000 )
                   39 displacement
                 (   0.25000000000   0.25000000000   0.25000000000 )
                      symmetry related atoms: 
             Si:    2    1

                   40 rotation    
                 (  -1.00000000000   0.00000000000   0.00000000000 )
                 (   0.00000000000   0.00000000000   1.00000000000 )
                 (   0.00000000000  -1.00000000000   0.00000000000 )
                   40 displacement
                 (   0.00000000000   0.00000000000  -0.00000000000 )
                      symmetry related atoms: 
             Si:    1    2

                   41 rotation    
                 (   0.00000000000   0.00000000000   1.00000000000 )
                 (   1.00000000000   0.00000000000   0.00000000000 )
                 (   0.00000000000  -1.00000000000   0.00000000000 )
                   41 displacement
                 (   0.25000000000   0.25000000000   0.25000000000 )
                      symmetry related atoms: 
             Si:    2    1

                   42 rotation    
                 (   0.00000000000  -1.00000000000   0.00000000000 )
                 (   1.00000000000   0.00000000000   0.00000000000 )
                 (   0.00000000000   0.00000000000  -1.00000000000 )
                   42 displacement
                 (   0.00000000000   0.00000000000  -0.00000000000 )
                      symmetry related atoms: 
             Si:    1    2

                   43 rotation    
                 (   0.00000000000   0.00000000000  -1.00000000000 )
                 (   1.00000000000   0.00000000000   0.00000000000 )
                 (   0.00000000000   1.00000000000   0.00000000000 )
                   43 displacement
                 (   0.25000000000   0.25000000000   0.25000000000 )
                      symmetry related atoms: 
             Si:    2    1

                   44 rotation    
                 (   0.00000000000   1.00000000000   0.00000000000 )
                 (   1.00000000000   0.00000000000   0.00000000000 )
                 (   0.00000000000   0.00000000000   1.00000000000 )
                   44 displacement
                 (   0.00000000000   0.00000000000  -0.00000000000 )
                      symmetry related atoms: 
             Si:    1    2

                   45 rotation    
                 (   0.00000000000   0.00000000000  -1.00000000000 )
                 (  -1.00000000000   0.00000000000   0.00000000000 )
                 (   0.00000000000  -1.00000000000   0.00000000000 )
                   45 displacement
                 (   0.25000000000   0.25000000000   0.25000000000 )
                      symmetry related atoms: 
             Si:    2    1

                   46 rotation    
                 (   0.00000000000  -1.00000000000   0.00000000000 )
                 (  -1.00000000000   0.00000000000   0.00000000000 )
                 (   0.00000000000   0.00000000000   1.00000000000 )
                   46 displacement
                 (   0.00000000000   0.00000000000  -0.00000000000 )
                      symmetry related atoms: 
             Si:    1    2

                   47 rotation    
                 (   0.00000000000   0.00000000000   1.00000000000 )
                 (  -1.00000000000   0.00000000000   0.00000000000 )
                 (   0.00000000000   1.00000000000   0.00000000000 )
                   47 displacement
                 (   0.25000000000   0.25000000000   0.25000000000 )
                      symmetry related atoms: 
             Si:    2    1

                   48 rotation    
                 (   0.00000000000   1.00000000000   0.00000000000 )
                 (  -1.00000000000   0.00000000000   0.00000000000 )
                 (   0.00000000000   0.00000000000  -1.00000000000 )
                   48 displacement
                 (   0.00000000000   0.00000000000  -0.00000000000 )
                      symmetry related atoms: 
             Si:    1    2


                         Centre of mass is constrained

            xxxxxxxxxxxxxxxxxxxxxxxxxxxxxxxxxxxxxxxxxxxxxxxxxxxxxxxxx....
            x  Species  atom   co-ordinate  constraints.....         
            x--------------------------------------------------------....
            x Si           1       x        51196.7345      0.0000      0.0000
            x Si           1       y            0.0000  51196.7345      0.0000
            x Si           1       z            0.0000      0.0000  51196.7345
            x Si           2       x        51196.7345      0.0000      0.0000
            x Si           2       y            0.0000  51196.7345      0.0000
            x Si           2       z            0.0000      0.0000  51196.7345
            xxxxxxxxxxxxxxxxxxxxxxxxxxxxxxxxxxxxxxxxxxxxxxxxxxxxxxxxx....

                         Number of cell constraints= 5
                         Cell constraints are:  1 1 1 0 0 0

                         External pressure/stress (GPa)
                          0.00000   0.00000   0.00000
                                    0.00000   0.00000
                                              0.00000
  
+---------------- MEMORY AND SCRATCH DISK ESTIMATES PER PROCESS --------------+
|                                                     Memory          Disk    |
| Baseline code, static data and system overhead        0.0 MB         0.0 MB |
| BLAS internal memory storage                          0.0 MB         0.0 MB |
| Model and support data                                3.1 MB         0.0 MB |
| Non-local exact exchange data                        53.8 MB         0.0 MB |
| Electronic energy minimisation requirements           1.2 MB         0.0 MB |
| Force calculation requirements                        0.5 MB         0.0 MB |
|                                               ----------------------------- |
| Approx. total storage required per process           55.0 MB         0.0 MB |
|                                                                             |
| Requirements will fluctuate during execution and may exceed these estimates |
+-----------------------------------------------------------------------------+
electronic_minimisation: Initialising
Calculating Ewald energy for ionic configuration
              Ewald: real-space energy =      37.694000 eV
        Ewald: reciprocal-space energy =       3.453837 eV
         Ewald: (sum_charge)**2 Energy =     135.682804 eV
         Ewald: (sum_charge**2) Energy =     135.682804 eV
                          Ewald Energy =    -230.217771 eV
Calculating non-Coulombic energy for ionic configuration
Calculating density (no density mixing)
Calculating local potential
Calculating exchange potential
Calculating non-local weights
Applying Hamiltonian in reciprocal space to find H|wvfn>                        
Performing sub-space diagonalisation
Applying Hamiltonian in reciprocal space to find (H-ES)|wvfn>                   
 
Init
Exchange-correlation energy      =       -47.49062454826663071 eV
+Hartree energy                  =         0.25125111361495983 eV
+Local pseudopotential energy    =         0.35300607431291992 eV
----------------------------------
Potential energy (total)         =       -46.88636736033876673 eV
                                  
+Non-Local Exact Exchange energy =        -3.74374499897656721 eV
+Kinetic energy                  =       430.19751411414199538 eV
+Non-local energy                =       -12.40083367699229910 eV
+Ewald energy (const)            =      -230.21777127234247473 eV
+non-Coulombic energy (const)    =        45.75822207137346709 eV
----------------------------------
Total energy                     =       182.70701887686530540 eV
 
(XC correction to eigenvalue sum =        14.63504685492637236 eV)
(Hubbard U correction to eigenvalu         0.00000000000000000 eV)
 
------------------------------------------------------------------------ <-- SCF
SCF loop      Energy                           Energy gain       Timer   <-- SCF
                                               per atom          (sec)   <-- SCF
------------------------------------------------------------------------ <-- SCF
Initial   1.82707019E+002                                          4.65  <-- SCF
Starting SCF cycle     1 of up to    30
 Recalculating preconditioning , KE=   55.004778367891930     
 KE_thresh=   0.0000000000000000      eV                            
 ratio=   1.0000000000000000     
 Calculating the R matrix for the precon Sinv operator
 Recalculating preconditioning , KE=   54.814887093844298     
 KE_thresh=   0.0000000000000000      eV                            
 ratio=   1.0000000000000000     
 Calculating the R matrix for the precon Sinv operator
 Recalculating preconditioning , KE=   53.335174912745323     
 KE_thresh=   0.0000000000000000      eV                            
 ratio=   1.0000000000000000     
 Calculating the R matrix for the precon Sinv operator
 Recalculating preconditioning , KE=   54.789511762924896     
 KE_thresh=   0.0000000000000000      eV                            
 ratio=   1.0000000000000000     
 Calculating the R matrix for the precon Sinv operator
 Recalculating preconditioning , KE=   53.934110026257265     
 KE_thresh=   0.0000000000000000      eV                            
 ratio=   1.0000000000000000     
 Calculating the R matrix for the precon Sinv operator
 Recalculating preconditioning , KE=   55.164005833994118     
 KE_thresh=   0.0000000000000000      eV                            
 ratio=   1.0000000000000000     
 Calculating the R matrix for the precon Sinv operator
 Recalculating preconditioning , KE=   51.556751878392141     
 KE_thresh=   0.0000000000000000      eV                            
 ratio=   1.0000000000000000     
 Calculating the R matrix for the precon Sinv operator
 Recalculating preconditioning , KE=   50.588351008977291     
 KE_thresh=   0.0000000000000000      eV                            
 ratio=   1.0000000000000000     
 Calculating the R matrix for the precon Sinv operator
 Recalculating preconditioning , KE=   53.296822893261499     
 KE_thresh=   0.0000000000000000      eV                            
 ratio=   1.0000000000000000     
 Calculating the R matrix for the precon Sinv operator
 Recalculating preconditioning , KE=   52.820778381100475     
 KE_thresh=   0.0000000000000000      eV                            
 ratio=   1.0000000000000000     
 Calculating the R matrix for the precon Sinv operator
Starting self-consistent electronic minimisation step      1 of      5
Steepest descent step      1
Minimisation for step      1 is of type SD  
Constructing projected SD direction (preconditioned)
Derivative of energy wrt step direction =  -291.59655    eV
 
Prior to line minimisation
Exchange-correlation energy      =       -47.49062454826663071 eV
+Hartree energy                  =         0.25125111361495983 eV
+Local pseudopotential energy    =         0.35300607431291992 eV
----------------------------------
Potential energy (total)         =       -46.88636736033876673 eV
                                  
+Non-Local Exact Exchange energy =        -3.74374499897656721 eV
+Kinetic energy                  =       430.19751411414199538 eV
+Non-local energy                =       -12.40083367699229910 eV
+Ewald energy (const)            =      -230.21777127234247473 eV
+non-Coulombic energy (const)    =        45.75822207137346709 eV
----------------------------------
Total energy                     =       182.70701887686530540 eV
 
(XC correction to eigenvalue sum =        14.63504685492637236 eV)
(Hubbard U correction to eigenvalu         0.00000000000000000 eV)
 
Starting line minimisation...
Energy at start of line minimisation =   182.70702    eV
1st trial step =  1.5000000    
Calculating density (no density mixing)
Calculating local potential
Calculating exchange potential
Calculating KE and non-local eigenvalues to find total energy
 
1st trial energies
Exchange-correlation energy      =       -49.66827990124203751 eV
+Hartree energy                  =         6.33223388754721661 eV
+Local pseudopotential energy    =       -37.02459578169656851 eV
----------------------------------
Potential energy (total)         =       -80.36064179539135921 eV
                                  
+Non-Local Exact Exchange energy =        -5.39451230640178903 eV
+Kinetic energy                  =       225.69149381160755752 eV
+Non-local energy                =       -18.03783153980752729 eV
+Ewald energy (const)            =      -230.21777127234247473 eV
+non-Coulombic energy (const)    =        45.75822207137346709 eV
----------------------------------
Total energy                     =       -62.56104103096216562 eV
 
(XC correction to eigenvalue sum =        15.10348540370605264 eV)
(Hubbard U correction to eigenvalu         0.00000000000000000 eV)
 
----- Parabolic fit, E = a + bx + cx^2 -----
initial energy            =   0.18270702E+03
First trial step          =   0.15000000E+01
First trial energy        =  -0.62561041E+02
Fit parameters:         a =   0.18270702E+03
                        b =  -0.29159655E+03
                        c =   0.85389674E+02
Parabolic minimum at step =   0.17074462E+01
Parabolic minimum energy  =  -0.66235694E+02
--------------------------------------------
line_minimisation: Taking next trial step, step=   1.7074462
Calculating density (no density mixing)
Calculating local potential
Calculating exchange potential
Calculating KE and non-local eigenvalues to find total energy
 
2nd trial energies
Exchange-correlation energy      =       -49.66106561787172069 eV
+Hartree energy                  =         6.38252888778698235 eV
+Local pseudopotential energy    =       -36.97657963827688121 eV
----------------------------------
Potential energy (total)         =       -80.25511636836159823 eV
                                  
+Non-Local Exact Exchange energy =        -5.45916736908148259 eV
+Kinetic energy                  =       223.38705780002251799 eV
+Non-local energy                =       -17.85903378181464518 eV
+Ewald energy (const)            =      -230.21777127234247473 eV
+non-Coulombic energy (const)    =        45.75822207137346709 eV
----------------------------------
Total energy                     =       -64.64580892020423164 eV
 
(XC correction to eigenvalue sum =        15.10361639398920985 eV)
(Hubbard U correction to eigenvalu         0.00000000000000000 eV)
 
 Cubic energy fit, E = E_o + dE_dstep.x + ax^2 + bx^3
 dE_dstep               =  -291.59655105232184     
 a                      =   81.446394961906151     
 b                      =   2.6288527426270778     
 1st step               =   1.5000000000000000     
 2nd step               =   1.7074462117826641     
 initial energy         =   182.70701887686531     
 1st trial energy       =  -62.561041030962166     
 2nd trial energy       =  -64.645808920204232     
 Cubic minimum at step  =   1.6571559404604788     
 Cubic minimum energy   =  -64.885183894606087     
Trial wavefunction accepted, final energy =      -64.6458089eV
+------------------- WAVEFUNCTION LINE MINIMISATION --------------------+<- line
| Initial energy =  1.827070E+002 eV; initial dE/dstep = -2.916E+002 eV |<- line
|                                                                       |<- line
|            1st step    2nd step    3rd step    4th step    5th step   |<- line
+--------+--------------------------------------------------------------+<- line
| step   |  1.500E+00   1.707E+00* unnecessary unnecessary unnecessary  |<- line
| gain   |  2.453E+02   2.474E+02* unnecessary unnecessary unnecessary  |<- line
+--------+--------------------------------------------------------------+<- line
 * indicates the final, accepted state (should have the lowest energy)          
 
Updating gradient
Calculating non-local weights
Applying Hamiltonian in reciprocal space to find (H-ES)|wvfn>                   
Starting self-consistent electronic minimisation step      2 of      5
Conjugate gradient step      1
Minimisation for step      2 is of type CG  
Constructing projected SD direction (preconditioned)
Constructing CG search direction
CG all bands factors:  2.484796E+000   5.357988E+000   4.637554E-001
Derivative of energy wrt step direction =  -136.29769    eV
 
Prior to line minimisation
Exchange-correlation energy      =       -49.66106561787172069 eV
+Hartree energy                  =         6.38252888778698235 eV
+Local pseudopotential energy    =       -36.97657963827688121 eV
----------------------------------
Potential energy (total)         =       -80.25511636836159823 eV
                                  
+Non-Local Exact Exchange energy =        -5.45916736908148259 eV
+Kinetic energy                  =       223.38705780002246115 eV
+Non-local energy                =       -17.85903378181464518 eV
+Ewald energy (const)            =      -230.21777127234247473 eV
+non-Coulombic energy (const)    =        45.75822207137346709 eV
----------------------------------
Total energy                     =       -64.64580892020427427 eV
 
(XC correction to eigenvalue sum =        15.10361639398920985 eV)
(Hubbard U correction to eigenvalu         0.00000000000000000 eV)
 
Starting line minimisation...
Energy at start of line minimisation =  -64.645809    eV
1st trial step =  1.5000000    
Calculating density (no density mixing)
Calculating local potential
Calculating exchange potential
Calculating KE and non-local eigenvalues to find total energy
 
1st trial energies
Exchange-correlation energy      =       -50.83344648135032173 eV
+Hartree energy                  =        10.03236347855398769 eV
+Local pseudopotential energy    =       -46.70396085005739195 eV
----------------------------------
Potential energy (total)         =       -87.50504385285380238 eV
                                  
+Non-Local Exact Exchange energy =        -7.39315755936926955 eV
+Kinetic energy                  =       155.36314277472206413 eV
+Non-local energy                =       -12.45167057374111508 eV
+Ewald energy (const)            =      -230.21777127234247473 eV
+non-Coulombic energy (const)    =        45.75822207137346709 eV
----------------------------------
Total energy                     =      -136.44627841221114295 eV
 
(XC correction to eigenvalue sum =        15.38278872910986550 eV)
(Hubbard U correction to eigenvalu         0.00000000000000000 eV)
 
----- Parabolic fit, E = a + bx + cx^2 -----
initial energy            =  -0.64645809E+02
First trial step          =   0.15000000E+01
First trial energy        =  -0.13644628E+03
Fit parameters:         a =  -0.64645809E+02
                        b =  -0.13629769E+03
                        c =   0.58953810E+02
Parabolic minimum at step =   0.11559702E+01
Parabolic minimum energy  =  -0.14342385E+03
--------------------------------------------
line_minimisation: Taking next trial step, step=   1.1559702
Calculating density (no density mixing)
Calculating local potential
Calculating exchange potential
Calculating KE and non-local eigenvalues to find total energy
 
2nd trial energies
Exchange-correlation energy      =       -50.93592282885988709 eV
+Hartree energy                  =        10.17227098558464427 eV
+Local pseudopotential energy    =       -47.69740174419176526 eV
----------------------------------
Potential energy (total)         =       -88.46105358746697789 eV
                                  
+Non-Local Exact Exchange energy =        -7.36491457680965222 eV
+Kinetic energy                  =       152.25634729119084909 eV
+Non-local energy                =       -13.17564765116593506 eV
+Ewald energy (const)            =      -230.21777127234247473 eV
+non-Coulombic energy (const)    =        45.75822207137346709 eV
----------------------------------
Total energy                     =      -141.20481772522072106 eV
 
(XC correction to eigenvalue sum =        15.40055063029867455 eV)
(Hubbard U correction to eigenvalu         0.00000000000000000 eV)
 
 Cubic energy fit, E = E_o + dE_dstep.x + ax^2 + bx^3
 dE_dstep               =  -136.29769498129292     
 a                      =   66.194244965250704     
 b                      =  -4.8269565012982349     
 1st step               =   1.5000000000000000     
 2nd step               =   1.1559701950403911     
 initial energy         =  -64.645808920204274     
 1st trial energy       =  -136.44627841221114     
 2nd trial energy       =  -141.20481772522072     
 Cubic minimum at step  =   1.1824693908959727     
 Cubic minimum energy   =  -141.23936560543535     
Trial wavefunction accepted, final energy =     -141.2048177eV
+------------------- WAVEFUNCTION LINE MINIMISATION --------------------+<- line
| Initial energy = -6.464581E+001 eV; initial dE/dstep = -1.363E+002 eV |<- line
|                                                                       |<- line
|            1st step    2nd step    3rd step    4th step    5th step   |<- line
+--------+--------------------------------------------------------------+<- line
| step   |  1.500E+00   1.156E+00* unnecessary unnecessary unnecessary  |<- line
| gain   |  7.180E+01   7.656E+01* unnecessary unnecessary unnecessary  |<- line
+--------+--------------------------------------------------------------+<- line
 * indicates the final, accepted state (should have the lowest energy)          
 
Updating gradient
Calculating non-local weights
Applying Hamiltonian in reciprocal space to find (H-ES)|wvfn>                   
Starting self-consistent electronic minimisation step      3 of      5
Conjugate gradient step      2
Minimisation for step      3 is of type CG  
Constructing projected SD direction (preconditioned)
Constructing CG search direction
CG all bands factors:  1.313796E+000   2.484796E+000   5.287339E-001
Derivative of energy wrt step direction =  -69.955452    eV
 
Prior to line minimisation
Exchange-correlation energy      =       -50.93592282885988709 eV
+Hartree energy                  =        10.17227098558464427 eV
+Local pseudopotential energy    =       -47.69740174419176526 eV
----------------------------------
Potential energy (total)         =       -88.46105358746697789 eV
                                  
+Non-Local Exact Exchange energy =        -7.36491457680965222 eV
+Kinetic energy                  =       152.25634729119084909 eV
+Non-local energy                =       -13.17564765116593506 eV
+Ewald energy (const)            =      -230.21777127234247473 eV
+non-Coulombic energy (const)    =        45.75822207137346709 eV
----------------------------------
Total energy                     =      -141.20481772522074948 eV
 
(XC correction to eigenvalue sum =        15.40055063029867455 eV)
(Hubbard U correction to eigenvalu         0.00000000000000000 eV)
 
Starting line minimisation...
Energy at start of line minimisation =  -141.20482    eV
1st trial step =  1.5000000    
Calculating density (no density mixing)
Calculating local potential
Calculating exchange potential
Calculating KE and non-local eigenvalues to find total energy
 
1st trial energies
Exchange-correlation energy      =       -51.19252029956764716 eV
+Hartree energy                  =        10.84973755710829479 eV
+Local pseudopotential energy    =       -49.75606064005277318 eV
----------------------------------
Potential energy (total)         =       -90.09884338251217173 eV
                                  
+Non-Local Exact Exchange energy =        -8.58639327867180846 eV
+Kinetic energy                  =       128.48766857206663872 eV
+Non-local energy                =        -9.59718540874762382 eV
+Ewald energy (const)            =      -230.21777127234247473 eV
+non-Coulombic energy (const)    =        45.75822207137346709 eV
----------------------------------
Total energy                     =      -164.25430269883401024 eV
 
(XC correction to eigenvalue sum =        15.46330843561296220 eV)
(Hubbard U correction to eigenvalu         0.00000000000000000 eV)
 
----- Parabolic fit, E = a + bx + cx^2 -----
initial energy            =  -0.14120482E+03
First trial step          =   0.15000000E+01
First trial energy        =  -0.16425430E+03
Fit parameters:         a =  -0.14120482E+03
                        b =  -0.69955452E+02
                        c =   0.36392752E+02
Parabolic minimum at step =   0.96111791E+00
Parabolic minimum energy  =  -0.17482254E+03
--------------------------------------------
line_minimisation: Taking next trial step, step=   0.9611179
Calculating density (no density mixing)
Calculating local potential
Calculating exchange potential
Calculating KE and non-local eigenvalues to find total energy
 
2nd trial energies
Exchange-correlation energy      =       -51.49984972836255537 eV
+Hartree energy                  =        11.71671679472499328 eV
+Local pseudopotential energy    =       -51.53087680547855598 eV
----------------------------------
Potential energy (total)         =       -91.31400973911611629 eV
                                  
+Non-Local Exact Exchange energy =        -8.70636884496090246 eV
+Kinetic energy                  =       121.04404229980482910 eV
+Non-local energy                =        -9.94372502161042604 eV
+Ewald energy (const)            =      -230.21777127234247473 eV
+non-Coulombic energy (const)    =        45.75822207137346709 eV
----------------------------------
Total energy                     =      -173.37961050685163400 eV
 
(XC correction to eigenvalue sum =        15.53337186067786035 eV)
(Hubbard U correction to eigenvalu         0.00000000000000000 eV)
 
 Cubic energy fit, E = E_o + dE_dstep.x + ax^2 + bx^3
 dE_dstep               =  -69.955451627019286     
 a                      =   40.740738596509686     
 b                      =  -2.8986575926610754     
 1st step               =   1.5000000000000000     
 2nd step               =  0.96111790650128104     
 initial energy         =  -141.20481772522075     
 1st trial energy       =  -164.25430269883401     
 2nd trial energy       =  -173.37961050685163     
 Cubic minimum at step  =  0.95610364850545349     
 Cubic minimum energy   =  -173.38042543355252     
Trial wavefunction accepted, final energy =     -173.3796105eV
+------------------- WAVEFUNCTION LINE MINIMISATION --------------------+<- line
| Initial energy = -1.412048E+002 eV; initial dE/dstep = -6.996E+001 eV |<- line
|                                                                       |<- line
|            1st step    2nd step    3rd step    4th step    5th step   |<- line
+--------+--------------------------------------------------------------+<- line
| step   |  1.500E+00   9.611E-01* unnecessary unnecessary unnecessary  |<- line
| gain   |  2.305E+01   3.217E+01* unnecessary unnecessary unnecessary  |<- line
+--------+--------------------------------------------------------------+<- line
 * indicates the final, accepted state (should have the lowest energy)          
 
Updating gradient
Calculating non-local weights
Applying Hamiltonian in reciprocal space to find (H-ES)|wvfn>                   
Starting self-consistent electronic minimisation step      4 of      5
Conjugate gradient step      3
Minimisation for step      4 is of type CG  
Constructing projected SD direction (preconditioned)
Constructing CG search direction
CG all bands factors:  7.060891E-001   1.313796E+000   5.374420E-001
Derivative of energy wrt step direction =  -36.775379    eV
 
Prior to line minimisation
Exchange-correlation energy      =       -51.49984972836255537 eV
+Hartree energy                  =        11.71671679472499328 eV
+Local pseudopotential energy    =       -51.53087680547855598 eV
----------------------------------
Potential energy (total)         =       -91.31400973911611629 eV
                                  
+Non-Local Exact Exchange energy =        -8.70636884496090069 eV
+Kinetic energy                  =       121.04404229980482910 eV
+Non-local energy                =        -9.94372502161042604 eV
+Ewald energy (const)            =      -230.21777127234247473 eV
+non-Coulombic energy (const)    =        45.75822207137346709 eV
----------------------------------
Total energy                     =      -173.37961050685163400 eV
 
(XC correction to eigenvalue sum =        15.53337186067786035 eV)
(Hubbard U correction to eigenvalu         0.00000000000000000 eV)
 
Starting line minimisation...
Energy at start of line minimisation =  -173.37961    eV
1st trial step =  1.5000000    
Calculating density (no density mixing)
Calculating local potential
Calculating exchange potential
Calculating KE and non-local eigenvalues to find total energy
 
1st trial energies
Exchange-correlation energy      =       -51.65806490034820797 eV
+Hartree energy                  =        12.06711793615998118 eV
+Local pseudopotential energy    =       -52.52268204227551962 eV
----------------------------------
Potential energy (total)         =       -92.11362900646375351 eV
                                  
+Non-Local Exact Exchange energy =        -9.42434190064739497 eV
+Kinetic energy                  =       112.45319919892507698 eV
+Non-local energy                =        -8.45334317489180442 eV
+Ewald energy (const)            =      -230.21777127234247473 eV
+non-Coulombic energy (const)    =        45.75822207137346709 eV
----------------------------------
Total energy                     =      -181.99766408404690310 eV
 
(XC correction to eigenvalue sum =        15.56614371873596703 eV)
(Hubbard U correction to eigenvalu         0.00000000000000000 eV)
 
----- Parabolic fit, E = a + bx + cx^2 -----
initial energy            =  -0.17337961E+03
First trial step          =   0.15000000E+01
First trial energy        =  -0.18199766E+03
Fit parameters:         a =  -0.17337961E+03
                        b =  -0.36775379E+02
                        c =   0.20686673E+02
Parabolic minimum at step =   0.88886643E+00
Parabolic minimum energy  =  -0.18972381E+03
--------------------------------------------
line_minimisation: Taking next trial step, step=   0.8888664
Calculating density (no density mixing)
Calculating local potential
Calculating exchange potential
Calculating KE and non-local eigenvalues to find total energy
 
2nd trial energies
Exchange-correlation energy      =       -51.81655543386853680 eV
+Hartree energy                  =        12.49184426743457799 eV
+Local pseudopotential energy    =       -53.48726233323959889 eV
----------------------------------
Potential energy (total)         =       -92.81197349967359855 eV
                                  
+Non-Local Exact Exchange energy =        -9.56783436357970984 eV
+Kinetic energy                  =       106.04445788003785367 eV
+Non-local energy                =        -8.31359202847131940 eV
+Ewald energy (const)            =      -230.21777127234247473 eV
+non-Coulombic energy (const)    =        45.75822207137346709 eV
----------------------------------
Total energy                     =      -189.10849121265579242 eV
 
(XC correction to eigenvalue sum =        15.60295274486191985 eV)
(Hubbard U correction to eigenvalu         0.00000000000000000 eV)
 
 Cubic energy fit, E = E_o + dE_dstep.x + ax^2 + bx^3
 dE_dstep               =  -36.775378622481881     
 a                      =   22.598209240095407     
 b                      =  -1.2743574618332201     
 1st step               =   1.5000000000000000     
 2nd step               =  0.88886643440233437     
 initial energy         =  -173.37961050685163     
 1st trial energy       =  -181.99766408404690     
 2nd trial energy       =  -189.10849121265579     
 Cubic minimum at step  =  0.87904130570593164     
 Cubic minimum energy   =  -189.11034706736356     
Trial wavefunction accepted, final energy =     -189.1084912eV
+------------------- WAVEFUNCTION LINE MINIMISATION --------------------+<- line
| Initial energy = -1.733796E+002 eV; initial dE/dstep = -3.678E+001 eV |<- line
|                                                                       |<- line
|            1st step    2nd step    3rd step    4th step    5th step   |<- line
+--------+--------------------------------------------------------------+<- line
| step   |  1.500E+00   8.889E-01* unnecessary unnecessary unnecessary  |<- line
| gain   |  8.618E+00   1.573E+01* unnecessary unnecessary unnecessary  |<- line
+--------+--------------------------------------------------------------+<- line
 * indicates the final, accepted state (should have the lowest energy)          
 
Updating gradient
Calculating non-local weights
Applying Hamiltonian in reciprocal space to find (H-ES)|wvfn>                   
Starting self-consistent electronic minimisation step      5 of      5
Conjugate gradient step      4
Minimisation for step      5 is of type CG  
Constructing projected SD direction (preconditioned)
Constructing CG search direction
CG all bands factors:  4.099593E-001   7.060891E-001   5.806057E-001
Derivative of energy wrt step direction =  -21.481330    eV
 
Prior to line minimisation
Exchange-correlation energy      =       -51.81655543386853680 eV
+Hartree energy                  =        12.49184426743457799 eV
+Local pseudopotential energy    =       -53.48726233323959889 eV
----------------------------------
Potential energy (total)         =       -92.81197349967359855 eV
                                  
+Non-Local Exact Exchange energy =        -9.56783436357971162 eV
+Kinetic energy                  =       106.04445788003782525 eV
+Non-local energy                =        -8.31359202847131940 eV
+Ewald energy (const)            =      -230.21777127234247473 eV
+non-Coulombic energy (const)    =        45.75822207137346709 eV
----------------------------------
Total energy                     =      -189.10849121265579242 eV
 
(XC correction to eigenvalue sum =        15.60295274486191985 eV)
(Hubbard U correction to eigenvalu         0.00000000000000000 eV)
 
Starting line minimisation...
Energy at start of line minimisation =  -189.10849    eV
1st trial step =  1.5000000    
Calculating density (no density mixing)
Calculating local potential
Calculating exchange potential
Calculating KE and non-local eigenvalues to find total energy
 
1st trial energies
Exchange-correlation energy      =       -51.98193207641825353 eV
+Hartree energy                  =        13.02567909926532508 eV
+Local pseudopotential energy    =       -54.34826700397503885 eV
----------------------------------
Potential energy (total)         =       -93.30451998112792467 eV
                                  
+Non-Local Exact Exchange energy =       -10.06905254739838007 eV
+Kinetic energy                  =       103.60642032407236002 eV
+Non-local energy                =        -7.76693228455380869 eV
+Ewald energy (const)            =      -230.21777127234247473 eV
+non-Coulombic energy (const)    =        45.75822207137346709 eV
----------------------------------
Total energy                     =      -191.99363368997677526 eV
 
(XC correction to eigenvalue sum =        15.64257904259110887 eV)
(Hubbard U correction to eigenvalu         0.00000000000000000 eV)
 
----- Parabolic fit, E = a + bx + cx^2 -----
initial energy            =  -0.18910849E+03
First trial step          =   0.15000000E+01
First trial energy        =  -0.19199363E+03
Fit parameters:         a =  -0.18910849E+03
                        b =  -0.21481330E+02
                        c =   0.13038601E+02
Parabolic minimum at step =   0.82375900E+00
Parabolic minimum energy  =  -0.19795621E+03
--------------------------------------------
line_minimisation: Taking next trial step, step=   0.8237590
Calculating density (no density mixing)
Calculating local potential
Calculating exchange potential
Calculating KE and non-local eigenvalues to find total energy
 
2nd trial energies
Exchange-correlation energy      =       -52.07887267787130980 eV
+Hartree energy                  =        13.20650923858758574 eV
+Local pseudopotential energy    =       -54.95728238304425162 eV
----------------------------------
Potential energy (total)         =       -93.82964582232803252 eV
                                  
+Non-Local Exact Exchange energy =       -10.15476708312995946 eV
+Kinetic energy                  =        98.19155700877735171 eV
+Non-local energy                =        -7.53913639690476689 eV
+Ewald energy (const)            =      -230.21777127234247473 eV
+non-Coulombic energy (const)    =        45.75822207137346709 eV
----------------------------------
Total energy                     =      -197.79154149455445122 eV
 
(XC correction to eigenvalue sum =        15.66337114018459786 eV)
(Hubbard U correction to eigenvalu         0.00000000000000000 eV)
 
 Cubic energy fit, E = E_o + dE_dstep.x + ax^2 + bx^3
 dE_dstep               =  -21.481329885128616     
 a                      =   13.576872779630637     
 b                      = -0.35884782334725501     
 1st step               =   1.5000000000000000     
 2nd step               =  0.82375899882331027     
 initial energy         =  -189.10849121265579     
 1st trial energy       =  -191.99363368997678     
 2nd trial energy       =  -197.79154149455445     
 Cubic minimum at step  =  0.81760253101113989     
 Cubic minimum energy   =  -197.79202264191059     
Trial wavefunction accepted, final energy =     -197.7915415eV
+------------------- WAVEFUNCTION LINE MINIMISATION --------------------+<- line
| Initial energy = -1.891085E+002 eV; initial dE/dstep = -2.148E+001 eV |<- line
|                                                                       |<- line
|            1st step    2nd step    3rd step    4th step    5th step   |<- line
+--------+--------------------------------------------------------------+<- line
| step   |  1.500E+00   8.238E-01* unnecessary unnecessary unnecessary  |<- line
| gain   |  2.885E+00   8.683E+00* unnecessary unnecessary unnecessary  |<- line
+--------+--------------------------------------------------------------+<- line
 * indicates the final, accepted state (should have the lowest energy)          
 
Updating gradient
Calculating non-local weights
Applying Hamiltonian in reciprocal space to find (H-ES)|wvfn>                   
 no. bands in each block=           4
 
End of SCF cycle energies
Exchange-correlation energy      =       -52.07887267787130980 eV
+Hartree energy                  =        13.20650923858758574 eV
+Local pseudopotential energy    =       -54.95728238304425162 eV
----------------------------------
Potential energy (total)         =       -93.82964582232803252 eV
                                  
+Non-Local Exact Exchange energy =       -10.15476708312996124 eV
+Kinetic energy                  =        98.19155700877730908 eV
+Non-local energy                =        -7.53913639690476689 eV
+Ewald energy (const)            =      -230.21777127234247473 eV
+non-Coulombic energy (const)    =        45.75822207137346709 eV
----------------------------------
Total energy                     =      -197.79154149455445122 eV
 
(XC correction to eigenvalue sum =        15.66337114018459786 eV)
(Hubbard U correction to eigenvalu         0.00000000000000000 eV)
 
      1  -1.97791541E+002                    1.90249280E+002      24.04  <-- SCF
Starting SCF cycle     2 of up to    30
 Recalculating preconditioning , KE=   12.360990688307620     
 KE_thresh=   55.004778367891930      eV                            
 ratio=   3.4498681177651465     
 Calculating the R matrix for the precon Sinv operator
 Recalculating preconditioning , KE=   12.877503766895858     
 KE_thresh=   54.814887093844298      eV                            
 ratio=   3.2566391814814830     
 Calculating the R matrix for the precon Sinv operator
 Recalculating preconditioning , KE=   12.797210707204345     
 KE_thresh=   53.335174912745323      eV                            
 ratio=   3.1677187422349498     
 Calculating the R matrix for the precon Sinv operator
 Recalculating preconditioning , KE=   12.303710419230148     
 KE_thresh=   54.789511762924896      eV                            
 ratio=   3.4530885315125213     
 Calculating the R matrix for the precon Sinv operator
 Recalculating preconditioning , KE=   11.624880698884422     
 KE_thresh=   53.934110026257265      eV                            
 ratio=   3.6395409487026420     
 Calculating the R matrix for the precon Sinv operator
 Recalculating preconditioning , KE=   12.918373257504937     
 KE_thresh=   55.164005833994118      eV                            
 ratio=   3.2701975499853715     
 Calculating the R matrix for the precon Sinv operator
 Recalculating preconditioning , KE=   13.439782344651020     
 KE_thresh=   51.556751878392141      eV                            
 ratio=   2.8361299726636964     
 Calculating the R matrix for the precon Sinv operator
 Recalculating preconditioning , KE=   14.145889652877495     
 KE_thresh=   50.588351008977291      eV                            
 ratio=   2.5761873060197971     
 Calculating the R matrix for the precon Sinv operator
 Recalculating preconditioning , KE=   11.041411294574559     
 KE_thresh=   53.296822893261499      eV                            
 ratio=   3.8269937122485480     
 Calculating the R matrix for the precon Sinv operator
 Recalculating preconditioning , KE=   12.529872870096142     
 KE_thresh=   52.820778381100475      eV                            
 ratio=   3.2155877341072481     
 Calculating the R matrix for the precon Sinv operator
Starting self-consistent electronic minimisation step      1 of      5
Steepest descent step      1
Minimisation for step      1 is of type SD  
Constructing projected SD direction (preconditioned)
Derivative of energy wrt step direction =  -5.0510460    eV
 
Prior to line minimisation
Exchange-correlation energy      =       -52.07887267787130980 eV
+Hartree energy                  =        13.20650923858758574 eV
+Local pseudopotential energy    =       -54.95728238304425162 eV
----------------------------------
Potential energy (total)         =       -93.82964582232803252 eV
                                  
+Non-Local Exact Exchange energy =       -10.15476708312996124 eV
+Kinetic energy                  =        98.19155700877730908 eV
+Non-local energy                =        -7.53913639690476689 eV
+Ewald energy (const)            =      -230.21777127234247473 eV
+non-Coulombic energy (const)    =        45.75822207137346709 eV
----------------------------------
Total energy                     =      -197.79154149455445122 eV
 
(XC correction to eigenvalue sum =        15.66337114018459786 eV)
(Hubbard U correction to eigenvalu         0.00000000000000000 eV)
 
Starting line minimisation...
Energy at start of line minimisation =  -197.79154    eV
1st trial step =  1.5000000    
Calculating density (no density mixing)
Calculating local potential
Calculating exchange potential
Calculating KE and non-local eigenvalues to find total energy
 
1st trial energies
Exchange-correlation energy      =       -52.15255680375130254 eV
+Hartree energy                  =        13.45901494682579980 eV
+Local pseudopotential energy    =       -55.21281946617208547 eV
----------------------------------
Potential energy (total)         =       -93.90636132309761308 eV
                                  
+Non-Local Exact Exchange energy =       -10.59147077127501468 eV
+Kinetic energy                  =        91.68974980807666952 eV
+Non-local energy                =        -6.91960100183375193 eV
+Ewald energy (const)            =      -230.21777127234247473 eV
+non-Coulombic energy (const)    =        45.75822207137346709 eV
----------------------------------
Total energy                     =      -204.18723248909873291 eV
 
(XC correction to eigenvalue sum =        15.68242728836766631 eV)
(Hubbard U correction to eigenvalu         0.00000000000000000 eV)
 
----- Parabolic fit, E = a + bx + cx^2 -----
initial energy            =  -0.19779154E+03
First trial step          =   0.15000000E+01
First trial energy        =  -0.20418723E+03
Fit parameters:         a =  -0.19779154E+03
                        b =  -0.50510460E+01
                        c =   0.52483464E+00
Parabolic minimum at step =   0.48120356E+01
Parabolic minimum energy  =  -0.20994445E+03
--------------------------------------------
line_minimisation: Taking next trial step, step=   4.8120356
Calculating density (no density mixing)
Calculating local potential
Calculating exchange potential
Calculating KE and non-local eigenvalues to find total energy
 
2nd trial energies
Exchange-correlation energy      =       -51.73584526477498713 eV
+Hartree energy                  =        12.46394341655133609 eV
+Local pseudopotential energy    =       -52.63099114626895414 eV
----------------------------------
Potential energy (total)         =       -91.90289299449261762 eV
                                  
+Non-Local Exact Exchange energy =       -10.94620495821845552 eV
+Kinetic energy                  =        84.57222993879028650 eV
+Non-local energy                =        -5.80169352742211508 eV
+Ewald energy (const)            =      -230.21777127234247473 eV
+non-Coulombic energy (const)    =        45.75822207137346709 eV
----------------------------------
Total energy                     =      -208.53811074231194311 eV
 
(XC correction to eigenvalue sum =        15.59350862703380081 eV)
(Hubbard U correction to eigenvalu         0.00000000000000000 eV)
 
 Cubic energy fit, E = E_o + dE_dstep.x + ax^2 + bx^3
 dE_dstep               =  -5.0510459561669734     
 a                      =  0.49732859924012557     
 b                      =   1.8337360419524822E-002
 1st step               =   1.5000000000000000     
 2nd step               =   4.8120356131826147     
 initial energy         =  -197.79154149455445     
 1st trial energy       =  -204.18723248909873     
 2nd trial energy       =  -208.53811074231194     
 Cubic minimum at step  =   4.1332956330642006     
 Cubic minimum energy   =  -208.87770967996349     
Trial wavefunction accepted, final energy =     -208.5381107eV
+------------------- WAVEFUNCTION LINE MINIMISATION --------------------+<- line
| Initial energy = -1.977915E+002 eV; initial dE/dstep = -5.051E+000 eV |<- line
|                                                                       |<- line
|            1st step    2nd step    3rd step    4th step    5th step   |<- line
+--------+--------------------------------------------------------------+<- line
| step   |  1.500E+00   4.812E+00* unnecessary unnecessary unnecessary  |<- line
| gain   |  6.396E+00   1.075E+01* unnecessary unnecessary unnecessary  |<- line
+--------+--------------------------------------------------------------+<- line
 * indicates the final, accepted state (should have the lowest energy)          
 
Updating gradient
Calculating non-local weights
Applying Hamiltonian in reciprocal space to find (H-ES)|wvfn>                   
Starting self-consistent electronic minimisation step      2 of      5
Conjugate gradient step      1
Minimisation for step      2 is of type CG  
Constructing projected SD direction (preconditioned)
Constructing CG search direction
CG all bands factors:  4.025441E-002   9.281126E-002   4.337234E-001
Derivative of energy wrt step direction =  -1.9277531    eV
 
Prior to line minimisation
Exchange-correlation energy      =       -51.73584526477498713 eV
+Hartree energy                  =        12.46394341655133609 eV
+Local pseudopotential energy    =       -52.63099114626895414 eV
----------------------------------
Potential energy (total)         =       -91.90289299449261762 eV
                                  
+Non-Local Exact Exchange energy =       -10.94620495821845552 eV
+Kinetic energy                  =        84.57222993879028650 eV
+Non-local energy                =        -5.80169352742211508 eV
+Ewald energy (const)            =      -230.21777127234247473 eV
+non-Coulombic energy (const)    =        45.75822207137346709 eV
----------------------------------
Total energy                     =      -208.53811074231194311 eV
 
(XC correction to eigenvalue sum =        15.59350862703380081 eV)
(Hubbard U correction to eigenvalu         0.00000000000000000 eV)
 
Starting line minimisation...
Energy at start of line minimisation =  -208.53811    eV
1st trial step =  1.5000000    
Calculating density (no density mixing)
Calculating local potential
Calculating exchange potential
Calculating KE and non-local eigenvalues to find total energy
 
1st trial energies
Exchange-correlation energy      =       -52.13822544080729671 eV
+Hartree energy                  =        13.36172044047708241 eV
+Local pseudopotential energy    =       -54.73814785760961854 eV
----------------------------------
Potential energy (total)         =       -93.51465285793979376 eV
                                  
+Non-Local Exact Exchange energy =       -11.22172601646034273 eV
+Kinetic energy                  =        84.07483547536337198 eV
+Non-local energy                =        -5.76599728487832763 eV
+Ewald energy (const)            =      -230.21777127234247473 eV
+non-Coulombic energy (const)    =        45.75822207137346709 eV
----------------------------------
Total energy                     =      -210.88708988488409091 eV
 
(XC correction to eigenvalue sum =        15.67905610188103793 eV)
(Hubbard U correction to eigenvalu         0.00000000000000000 eV)
 
----- Parabolic fit, E = a + bx + cx^2 -----
initial energy            =  -0.20853811E+03
First trial step          =   0.15000000E+01
First trial energy        =  -0.21088709E+03
Fit parameters:         a =  -0.20853811E+03
                        b =  -0.19277531E+01
                        c =   0.24117802E+00
Parabolic minimum at step =   0.39965356E+01
Parabolic minimum energy  =  -0.21239028E+03
--------------------------------------------
line_minimisation: Taking next trial step, step=   3.9965356
Calculating density (no density mixing)
Calculating local potential
Calculating exchange potential
Calculating KE and non-local eigenvalues to find total energy
 
2nd trial energies
Exchange-correlation energy      =       -52.66005124141587146 eV
+Hartree energy                  =        14.51323081147428518 eV
+Local pseudopotential energy    =       -57.35786272774859640 eV
----------------------------------
Potential energy (total)         =       -95.50468315769023775 eV
                                  
+Non-Local Exact Exchange energy =       -11.48403937356899895 eV
+Kinetic energy                  =        85.11024380387777910 eV
+Non-local energy                =        -5.83292635987200825 eV
+Ewald energy (const)            =      -230.21777127234247473 eV
+non-Coulombic energy (const)    =        45.75822207137346709 eV
----------------------------------
Total energy                     =      -212.17095428822247527 eV
 
(XC correction to eigenvalue sum =        15.79252802007850498 eV)
(Hubbard U correction to eigenvalu         0.00000000000000000 eV)
 
[...]
+Local pseudopotential energy    =       -59.62007350315494136 eV
----------------------------------
Potential energy (total)         =       -96.91024490293528970 eV
                                  
+Non-Local Exact Exchange energy =       -11.81145213645968717 eV
+Kinetic energy                  =        84.86279456744533434 eV
+Non-local energy                =        -6.22134433044153390 eV
+Ewald energy (const)            =      -230.21777127234247473 eV
+non-Coulombic energy (const)    =        45.75822207137346709 eV
----------------------------------
Total energy                     =      -214.53979600336020894 eV
 
(XC correction to eigenvalue sum =        15.90583886616973075 eV)
(Hubbard U correction to eigenvalu         0.00000000000000000 eV)
 
----- Parabolic fit, E = a + bx + cx^2 -----
initial energy            =  -0.21453980E+03
First trial step          =   0.15000000E+01
First trial energy        =  -0.21453980E+03
Fit parameters:         a =  -0.21453980E+03
                        b =  -0.30138850E-08
                        c =  -0.17042920E-07
Parabolic minimum at step =  -0.88420440E-01
Parabolic minimum energy  =  -0.21453980E+03
--------------------------------------------
** Parabolic stationary point is a maximum *
** - looks like we need another trial step *
Trial wavefunction accepted, final energy =     -214.5397960eV
+------------------- WAVEFUNCTION LINE MINIMISATION --------------------+<- line
| Initial energy = -2.145398E+002 eV; initial dE/dstep = -3.014E-009 eV |<- line
|                                                                       |<- line
|            1st step    2nd step    3rd step    4th step    5th step   |<- line
+--------+--------------------------------------------------------------+<- line
| step   |  1.500E+00* unnecessary unnecessary unnecessary unnecessary  |<- line
| gain   |  4.287E-08* unnecessary unnecessary unnecessary unnecessary  |<- line
+--------+--------------------------------------------------------------+<- line
 * indicates the final, accepted state (should have the lowest energy)          
 
Updating gradient
Calculating non-local weights
Applying Hamiltonian in reciprocal space to find (H-ES)|wvfn>                   
Starting self-consistent electronic minimisation step      3 of      5
Conjugate gradient step      2
Minimisation for step      3 is of type CG  
Constructing projected SD direction (preconditioned)
Constructing CG search direction
CG all bands factors:  2.079285E-011   3.289464E-011   6.321046E-001
Derivative of energy wrt step direction = -0.23491894E-08eV
 
Prior to line minimisation
Exchange-correlation energy      =       -53.15883242573440981 eV
+Hartree energy                  =        15.86866102595412897 eV
+Local pseudopotential energy    =       -59.62007350315494136 eV
----------------------------------
Potential energy (total)         =       -96.91024490293528970 eV
                                  
+Non-Local Exact Exchange energy =       -11.81145213645969605 eV
+Kinetic energy                  =        84.86279456744536276 eV
+Non-local energy                =        -6.22134433044153390 eV
+Ewald energy (const)            =      -230.21777127234247473 eV
+non-Coulombic energy (const)    =        45.75822207137346709 eV
----------------------------------
Total energy                     =      -214.53979600336020894 eV
 
(XC correction to eigenvalue sum =        15.90583886616973075 eV)
(Hubbard U correction to eigenvalu         0.00000000000000000 eV)
 
Starting line minimisation...
Energy at start of line minimisation =  -214.53980    eV
1st trial step =  1.5000000    
Calculating density (no density mixing)
Calculating local potential
Calculating exchange potential
Calculating KE and non-local eigenvalues to find total energy
 
1st trial energies
Exchange-correlation energy      =       -53.15883198095901463 eV
+Hartree energy                  =        15.86866047171540295 eV
+Local pseudopotential energy    =       -59.62007078953714512 eV
----------------------------------
Potential energy (total)         =       -96.91024229878080121 eV
                                  
+Non-Local Exact Exchange energy =       -11.81145197122410195 eV
+Kinetic energy                  =        84.86279209336852603 eV
+Non-local energy                =        -6.22134466797029440 eV
+Ewald energy (const)            =      -230.21777127234247473 eV
+non-Coulombic energy (const)    =        45.75822207137346709 eV
----------------------------------
Total energy                     =      -214.53979604557568450 eV
 
(XC correction to eigenvalue sum =        15.90583875857252139 eV)
(Hubbard U correction to eigenvalu         0.00000000000000000 eV)
 
----- Parabolic fit, E = a + bx + cx^2 -----
initial energy            =  -0.21453980E+03
First trial step          =   0.15000000E+01
First trial energy        =  -0.21453980E+03
Fit parameters:         a =  -0.21453980E+03
                        b =  -0.23491894E-08
                        c =  -0.17196310E-07
Parabolic minimum at step =  -0.68305044E-01
Parabolic minimum energy  =  -0.21453980E+03
--------------------------------------------
** Parabolic stationary point is a maximum *
** - looks like we need another trial step *
Trial wavefunction accepted, final energy =     -214.5397960eV
+------------------- WAVEFUNCTION LINE MINIMISATION --------------------+<- line
| Initial energy = -2.145398E+002 eV; initial dE/dstep = -2.349E-009 eV |<- line
|                                                                       |<- line
|            1st step    2nd step    3rd step    4th step    5th step   |<- line
+--------+--------------------------------------------------------------+<- line
| step   |  1.500E+00* unnecessary unnecessary unnecessary unnecessary  |<- line
| gain   |  4.222E-08* unnecessary unnecessary unnecessary unnecessary  |<- line
+--------+--------------------------------------------------------------+<- line
 * indicates the final, accepted state (should have the lowest energy)          
 
Updating gradient
Calculating non-local weights
Applying Hamiltonian in reciprocal space to find (H-ES)|wvfn>                   
Starting self-consistent electronic minimisation step      4 of      5
Conjugate gradient step      3
Minimisation for step      4 is of type CG  
Constructing projected SD direction (preconditioned)
Constructing CG search direction
CG all bands factors:  1.173876E-011   2.079285E-011   5.645577E-001
Derivative of energy wrt step direction = -0.14949249E-08eV
 
Prior to line minimisation
Exchange-correlation energy      =       -53.15883198095901463 eV
+Hartree energy                  =        15.86866047171540295 eV
+Local pseudopotential energy    =       -59.62007078953714512 eV
----------------------------------
Potential energy (total)         =       -96.91024229878080121 eV
                                  
+Non-Local Exact Exchange energy =       -11.81145197122410373 eV
+Kinetic energy                  =        84.86279209336849760 eV
+Non-local energy                =        -6.22134466797029440 eV
+Ewald energy (const)            =      -230.21777127234247473 eV
+non-Coulombic energy (const)    =        45.75822207137346709 eV
----------------------------------
Total energy                     =      -214.53979604557574135 eV
 
(XC correction to eigenvalue sum =        15.90583875857252139 eV)
(Hubbard U correction to eigenvalu         0.00000000000000000 eV)
 
Starting line minimisation...
Energy at start of line minimisation =  -214.53980    eV
1st trial step =  1.5000000    
Calculating density (no density mixing)
Calculating local potential
Calculating exchange potential
Calculating KE and non-local eigenvalues to find total energy
 
1st trial energies
Exchange-correlation energy      =       -53.15883202383005823 eV
+Hartree energy                  =        15.86866005312616146 eV
+Local pseudopotential energy    =       -59.62007144726701569 eV
----------------------------------
Potential energy (total)         =       -96.91024341797093200 eV
                                  
+Non-Local Exact Exchange energy =       -11.81145192491056761 eV
+Kinetic energy                  =        84.86279349059915944 eV
+Non-local energy                =        -6.22134502330803052 eV
+Ewald energy (const)            =      -230.21777127234247473 eV
+non-Coulombic energy (const)    =        45.75822207137346709 eV
----------------------------------
Total energy                     =      -214.53979607655941209 eV
 
(XC correction to eigenvalue sum =        15.90583874267739439 eV)
(Hubbard U correction to eigenvalu         0.00000000000000000 eV)
 
----- Parabolic fit, E = a + bx + cx^2 -----
initial energy            =  -0.21453980E+03
First trial step          =   0.15000000E+01
First trial energy        =  -0.21453980E+03
Fit parameters:         a =  -0.21453980E+03
                        b =  -0.14949249E-08
                        c =  -0.12773903E-07
Parabolic minimum at step =  -0.58514806E-01
Parabolic minimum energy  =  -0.21453980E+03
--------------------------------------------
** Parabolic stationary point is a maximum *
** - looks like we need another trial step *
Trial wavefunction accepted, final energy =     -214.5397961eV
+------------------- WAVEFUNCTION LINE MINIMISATION --------------------+<- line
| Initial energy = -2.145398E+002 eV; initial dE/dstep = -1.495E-009 eV |<- line
|                                                                       |<- line
|            1st step    2nd step    3rd step    4th step    5th step   |<- line
+--------+--------------------------------------------------------------+<- line
| step   |  1.500E+00* unnecessary unnecessary unnecessary unnecessary  |<- line
| gain   |  3.098E-08* unnecessary unnecessary unnecessary unnecessary  |<- line
+--------+--------------------------------------------------------------+<- line
 * indicates the final, accepted state (should have the lowest energy)          
 
Updating gradient
Calculating non-local weights
Applying Hamiltonian in reciprocal space to find (H-ES)|wvfn>                   
Starting self-consistent electronic minimisation step      5 of      5
Conjugate gradient step      4
Minimisation for step      5 is of type CG  
Constructing projected SD direction (preconditioned)
Constructing CG search direction
CG all bands factors:  4.299809E-012   1.173876E-011   3.662915E-001
Derivative of energy wrt step direction = -0.54442409E-09eV
 
Prior to line minimisation
Exchange-correlation energy      =       -53.15883202383005823 eV
+Hartree energy                  =        15.86866005312616146 eV
+Local pseudopotential energy    =       -59.62007144726701569 eV
----------------------------------
Potential energy (total)         =       -96.91024341797093200 eV
                                  
+Non-Local Exact Exchange energy =       -11.81145192491056939 eV
+Kinetic energy                  =        84.86279349059915944 eV
+Non-local energy                =        -6.22134502330803052 eV
+Ewald energy (const)            =      -230.21777127234247473 eV
+non-Coulombic energy (const)    =        45.75822207137346709 eV
----------------------------------
Total energy                     =      -214.53979607655941209 eV
 
(XC correction to eigenvalue sum =        15.90583874267739439 eV)
(Hubbard U correction to eigenvalu         0.00000000000000000 eV)
 
Starting line minimisation...
Energy at start of line minimisation =  -214.53980    eV
1st trial step =  1.5000000    
Calculating density (no density mixing)
Calculating local potential
Calculating exchange potential
Calculating KE and non-local eigenvalues to find total energy
 
1st trial energies
Exchange-correlation energy      =       -53.15883234108273570 eV
+Hartree energy                  =        15.86866012988426711 eV
+Local pseudopotential energy    =       -59.62007348157936804 eV
----------------------------------
Potential energy (total)         =       -96.91024569277784906 eV
                                  
+Non-Local Exact Exchange energy =       -11.81145196641884354 eV
+Kinetic energy                  =        84.86279600570189530 eV
+Non-local energy                =        -6.22134523575683662 eV
+Ewald energy (const)            =      -230.21777127234247473 eV
+non-Coulombic energy (const)    =        45.75822207137346709 eV
----------------------------------
Total energy                     =      -214.53979609022067621 eV
 
(XC correction to eigenvalue sum =        15.90583879298749359 eV)
(Hubbard U correction to eigenvalu         0.00000000000000000 eV)
 
----- Parabolic fit, E = a + bx + cx^2 -----
initial energy            =  -0.21453980E+03
First trial step          =   0.15000000E+01
First trial energy        =  -0.21453980E+03
Fit parameters:         a =  -0.21453980E+03
                        b =  -0.54442409E-09
                        c =  -0.57087332E-08
Parabolic minimum at step =  -0.47683441E-01
Parabolic minimum energy  =  -0.21453980E+03
--------------------------------------------
** Parabolic stationary point is a maximum *
** - looks like we need another trial step *
Trial wavefunction accepted, final energy =     -214.5397961eV
+------------------- WAVEFUNCTION LINE MINIMISATION --------------------+<- line
| Initial energy = -2.145398E+002 eV; initial dE/dstep = -5.444E-010 eV |<- line
|                                                                       |<- line
|            1st step    2nd step    3rd step    4th step    5th step   |<- line
+--------+--------------------------------------------------------------+<- line
| step   |  1.500E+00* unnecessary unnecessary unnecessary unnecessary  |<- line
| gain   |  1.366E-08* unnecessary unnecessary unnecessary unnecessary  |<- line
+--------+--------------------------------------------------------------+<- line
 * indicates the final, accepted state (should have the lowest energy)          
 
Updating gradient
Calculating non-local weights
Applying Hamiltonian in reciprocal space to find (H-ES)|wvfn>                   
 no. bands in each block=           4
 
End of SCF cycle energies
Exchange-correlation energy      =       -53.15883234108273570 eV
+Hartree energy                  =        15.86866012988426711 eV
+Local pseudopotential energy    =       -59.62007348157936804 eV
----------------------------------
Potential energy (total)         =       -96.91024569277784906 eV
                                  
+Non-Local Exact Exchange energy =       -11.81145196641884709 eV
+Kinetic energy                  =        84.86279600570190951 eV
+Non-local energy                =        -6.22134523575683662 eV
+Ewald energy (const)            =      -230.21777127234247473 eV
+non-Coulombic energy (const)    =        45.75822207137346709 eV
----------------------------------
Total energy                     =      -214.53979609022064778 eV
 
(XC correction to eigenvalue sum =        15.90583879298749359 eV)
(Hubbard U correction to eigenvalu         0.00000000000000000 eV)
 
      6  -2.14539796E+002                    8.17583643E-008     111.28  <-- SCF
Preparing final Hamiltonian
Calculating density (no density mixing)
Calculating local potential
Calculating exchange potential
Calculating non-local weights
Applying Hamiltonian in reciprocal space to find H|wvfn>                        
Performing subspace diagonalisation
------------------------------------------------------------------------ <-- SCF
Total energy has converged after 6 SCF iterations.
 
Final energy =  -214.5397960902     eV
(energy not corrected for finite basis set)
 
Convergence criterion used: energy spread less than 3.6749E-07 over a sequence of 3 energies
Have a nice day.

Writing analysis data to Si2_sp.castep_bin

Writing model to Si2_sp.check
                            Ewald force:
Species #   1 Atom #   1 Fx:0.407836E-13 Fy:0.479795E-13 Fz:0.562351E-13 eV/A
Species #   1 Atom #   2 Fx:-.411172E-13 Fy:-.482019E-13 Fz:-.564575E-13 eV/A

 ******************** Ewald forces ********************
 *                                                    *
 *            Cartesian components (eV/A)             *
 * -------------------------------------------------- *
 *                   x            y            z      *
 *                                                    *
 * Si        1      0.00000      0.00000      0.00000 *
 * Si        2     -0.00000     -0.00000     -0.00000 *
 *                                                    *
 ******************************************************

 *************** Local potential forces ***************
 *                                                    *
 *            Cartesian components (eV/A)             *
 * -------------------------------------------------- *
 *                   x            y            z      *
 *                                                    *
 * Si        1      0.09057     -0.02409     -0.13350 *
 * Si        2     -0.09054      0.02408      0.13348 *
 *                                                    *
 ******************************************************

 ************* Non-local potential forces *************
 *                                                    *
 *            Cartesian components (eV/A)             *
 * -------------------------------------------------- *
 *                   x            y            z      *
 *                                                    *
 * Si        1      0.11197     -0.09608     -0.02394 *
 * Si        2     -0.11197      0.09607      0.02394 *
 *                                                    *
 ******************************************************

 *********** External Efield and/or dipole ************
 *                                                    *
 *            Cartesian components (eV/A)             *
 * -------------------------------------------------- *
 *                   x            y            z      *
 *                                                    *
 * Si        1      0.00000      0.00000      0.00000 *
 * Si        2      0.00000      0.00000      0.00000 *
 *                                                    *
 ******************************************************

 ***************** Symmetrised Forces *****************
 *                                                    *
 *            Cartesian components (eV/A)             *
 * -------------------------------------------------- *
 *                   x            y            z      *
 *                                                    *
 * Si        1     -0.00000      0.00000      0.00000 *
 * Si        2      0.00000      0.00000     -0.00000 *
 *                                                    *
 ******************************************************

 Pseudo atomic calculation performed for Si 3s2 3p2

 Converged in 16 iterations to a total energy of -101.8630 eV

Charge spilling parameter for spin component 1 = 1.09%
The total projected population is    8.000   0.000

     Atomic Populations (Mulliken)
     -----------------------------
Species   Ion     s      p      d      f     Total  Charge (e)
==============================================================
  Si       1     1.34   2.66   0.00   0.00   4.00     0.00
  Si       2     1.34   2.66   0.00   0.00   4.00     0.00
==============================================================

            Bond              Population      Length (A)
============================================================
         Si 1 -- Si 2              3.04        2.33434
============================================================


Writing analysis data to Si2_sp.castep_bin

Writing model to Si2_sp.check
 
 A BibTeX formatted list of references used in this run has been written to 
 Si2_sp.bib
 
Initialisation time =      1.00 s
Calculation time    =    112.20 s
Finalisation time   =      0.02 s
Total time          =    113.22 s
