 +-------------------------------------------------+
 |                                                 |
 |      CCC   AA    SSS  TTTTT  EEEEE  PPPP        |
 |     C     A  A  S       T    E      P   P       |
 |     C     AAAA   SS     T    EEE    PPPP        |
 |     C     A  A     S    T    E      P           |
 |      CCC  A  A  SSS     T    EEEEE  P           |
 |                                                 |
 +-------------------------------------------------+
 |                                                 |
 | Welcome to Academic Release CASTEP version 16.1 |          
 | Ab Initio Total Energy Program                  |
 |                                                 |
 | Authors:                                        |
 | M. Segall, M. Probert, C. Pickard, P. Hasnip,   |
 | S. Clark, K. Refson, J. R. Yates, M. Payne      |
 |                                                 |
 | Contributors:                                   |
 | P. Lindan, P. Haynes, J. White, V. Milman,      |
 | N. Govind, M. Gibson, P. Tulip, V. Cocula,      |
 | B. Montanari, D. Quigley, M. Glover,            |
 | L. Bernasconi, A. Perlov, M. Plummer,           |
 | E. McNellis, J. Meyer, J. Gale, D. Jochym       |
 | J. Aarons, B. Walker, R. Gillen, D. Jones       |
 | T. Green, I. J. Bush, C. J. Armstrong,          |
 | E. J. Higgins, E. L. Brown, M. S. McFly         |
 |                                                 |
 | Copyright (c) 2000 - 2015                       |
 |                                                 |
 |     Distributed under the terms of an           |
 |     Agreement between the United Kingdom        |
 |     Car-Parrinello (UKCP) Consortium,           |
 |     Daresbury Laboratory and Accelrys, Inc.     |
 |                                                 |
 | Please cite                                     |
 |                                                 |
 |     "First principles methods using CASTEP"     |
 |                                                 |
 |         Zeitschrift fuer Kristallographie       |
 |           220(5-6) pp. 567-570 (2005)           |
 |                                                 |
 | S. J. Clark, M. D. Segall, C. J. Pickard,       |
 | P. J. Hasnip, M. J. Probert, K. Refson,         |
 | M. C. Payne                                     |
 |                                                 |
 |       in all publications arising from          |
 |              your use of CASTEP                 |
 |                                                 |
 +-------------------------------------------------+


 Compiled for darwin_x86_64_gfortran5.0 on Fri, 19 Feb 2016 13:44:46 +0000
 from code version Version unavailable
 Compiler: GNU Fortran 5.3.0; Optimisation: intermediate
 MATHLIBS: default (LAPACK version 3.2.1)
 FFT Lib : default
 Fundamental constants values: CODATA 2010

 Run started: Mon, 22 Feb 2016 16:53:27 +0000

 ******************************* User Parameters *******************************
iprint                : 2             # verbosity control (I)
task                  : bandstructure # type of calculation (S)
calculatedensdiff     : T             # calculate density difference based on atoms (L)
writeformatteddensity : T             # formatted density on/off (L)
optstrategy           : speed         # optimization strategy (S)
xcfunctional          : b3lyp         # exchange-correlation functional (S)
basisprecision        : MEDIUM        # accuracy of basis set (S)
spinpolarised         : F             # spin polarised (L)
fixoccupancy          : T             # treat system as an insulator (L)
numdumpcycles         : 0             # frequency of wavefunction dumps (I)

 *******************************************************************************
  

 Pseudo atomic calculation performed for Si 3s2 3p2

 Converged in 16 iterations to a total energy of -101.8630 eV

Initialising basis set.

Standard grid dimensions:  16  16  16
Fine grid dimensions:      16  16  16

Plane wave load balancing: max    265 min    243 average    252
True cut-off energy of basis :   7.332
 Calculation not parallelised.

 ************************************ Title ************************************
 

 ***************************** General Parameters ******************************
  
 output verbosity                               : verbose (2)
 write checkpoint data to                       : Si2.check
 type of calculation                            : band structure
 stress calculation                             : off
 density difference calculation                 : on
 electron localisation func (ELF) calculation   : off
 Hirshfeld analysis                             : off
 unlimited duration calculation
 timing information                             : on
 memory usage estimate                          : on
 write final potential to formatted file        : off
 write final density to formatted file          : on
 write BibTeX reference list                    : on
 write OTFG pseudopotential files               : on
 checkpoint writing                             : both castep_bin and check files
  
 output         length unit                     : A
 output           mass unit                     : amu
 output           time unit                     : ps
 output         charge unit                     : e
 output           spin unit                     : hbar/2
 output         energy unit                     : eV
 output          force unit                     : eV/A
 output       velocity unit                     : A/ps
 output       pressure unit                     : GPa
 output     inv_length unit                     : 1/A
 output      frequency unit                     : cm-1
 output force constant unit                     : eV/A**2
 output         volume unit                     : A**3
 output   IR intensity unit                     : (D/A)**2/amu
 output         dipole unit                     : D
 output         efield unit                     : eV/A/e
 output        entropy unit                     : J/mol/K
  
 wavefunctions paging                           : none
 random number generator seed                   : randomised (165327485)
 data distribution                              : optimal for this architecture
 optimization strategy                          : maximize speed(+++)

 *********************** Exchange-Correlation Parameters ***********************
  
 using functional                               : hybrid B3LYP
 relativistic treatment                         : Koelling-Harmon
 DFT+D: Semi-empirical dispersion correction    : off

 ************************* Pseudopotential Parameters **************************
  
 pseudopotential representation                 : reciprocal space
 <beta|phi> representation                      : reciprocal space
 spin-orbit coupling                            : off

 **************************** Basis Set Parameters *****************************
  
 basis set accuracy                             : MEDIUM
 plane wave basis set cut-off                   :   200.0000   eV
 size of standard grid                          :     1.7500
 size of   fine   gmax                          :    12.6792   1/A
 finite basis set correction                    : none

 **************************** Electronic Parameters ****************************
  
 number of  electrons                           :  8.000    
 net charge of system                           :  0.000    
 treating system as non-spin-polarized
 number of bands                                :          4

 ********************* Electronic Minimization Parameters **********************
  
 Method: Treating system as non-metallic,
         and number of  SD  steps               :          1
         and number of  CG  steps               :          4
  
 total energy / atom convergence tol.           : 0.1000E-04   eV
 max force / atom convergence tol.              : ignored
 convergence tolerance window                   :          3   cycles
 max. number of SCF cycles                      :         30
 periodic dipole correction                     : NONE

 *********************** Population Analysis Parameters ************************
  
 Population analysis with cutoff                :  3.000       A

 ************************** Band Structure Parameters **************************
  
 max. number of iterations                      :         60
 max. CG steps in BS calc                       :         25
 number of bands / k-point                      :         14
 band convergence tolerance                     : 0.1000E-05   eV
 write orbitals file                            : on

 *******************************************************************************
  

                           -------------------------------
                                      Unit Cell
                           -------------------------------
        Real Lattice(A)                      Reciprocal Lattice(1/A)
   2.6954645   2.6954645   0.0000000        1.1655107   1.1655107  -1.1655107
   2.6954645   0.0000000   2.6954645        1.1655107  -1.1655107   1.1655107
   0.0000000   2.6954645   2.6954645       -1.1655107   1.1655107   1.1655107

                       Lattice parameters(A)       Cell Angles
                    a =    3.811962          alpha =   60.000000
                    b =    3.811962          beta  =   60.000000
                    c =    3.811962          gamma =   60.000000

                       Current cell volume =   39.167950       A**3

                           -------------------------------
                                     Cell Contents
                           -------------------------------
                         Total number of ions in cell =    2
                      Total number of species in cell =    1
                        Max number of any one species =    2

            xxxxxxxxxxxxxxxxxxxxxxxxxxxxxxxxxxxxxxxxxxxxxxxxxxxxxxxxxxxx
            x  Element    Atom        Fractional coordinates of atoms  x
            x            Number           u          v          w      x
            x----------------------------------------------------------x
            x  Si           1         0.000000   0.000000   0.000000   x 
            x  Si           2         0.250000   0.250000   0.250000   x 
            xxxxxxxxxxxxxxxxxxxxxxxxxxxxxxxxxxxxxxxxxxxxxxxxxxxxxxxxxxxx


                         No user defined ionic velocities

                           -------------------------------
                                   Details of Species
                           -------------------------------

                               Mass of species in AMU
                                    Si   28.0855000

                          Electric Quadrupole Moment (Barn)
                                    Si    1.0000000 No Isotope Defined

                          Files used for pseudopotentials:
                                    Si Si_00.recpot

                           -------------------------------
                              k-Points For BZ Sampling
                           -------------------------------
                       MP grid size for SCF calculation is  4  4  4
                            with an offset of   0.000  0.000  0.000
                       Number of kpoints used =            10

             +++++++++++++++++++++++++++++++++++++++++++++++++++++++
             +  Number       Fractional coordinates        Weight  +
             +-----------------------------------------------------+
             +     1  -0.375000  -0.125000  -0.375000   0.0937500  +
             +     2  -0.375000   0.375000   0.375000   0.0937500  +
             +     3  -0.125000  -0.375000  -0.125000   0.0937500  +
             +     4  -0.125000   0.375000   0.375000   0.0937500  +
             +     5   0.125000  -0.375000  -0.125000   0.1875000  +
             +     6   0.125000  -0.375000   0.125000   0.0937500  +
             +     7   0.125000  -0.125000  -0.125000   0.0937500  +
             +     8   0.125000   0.125000   0.125000   0.0312500  +
             +     9   0.375000  -0.375000   0.125000   0.1875000  +
             +    10   0.375000   0.375000   0.375000   0.0312500  +
             +++++++++++++++++++++++++++++++++++++++++++++++++++++++

                           -------------------------------
                               Symmetry and Constraints
                           -------------------------------

                      Maximum deviation from symmetry =  0.00000         ANG

                      Number of symmetry operations   =          48
                      Number of ionic constraints     =           3
                      Point group of crystal =    32: Oh, m-3m, 4/m -3 2/m
                      Space group of crystal =   227: Fd-3m, F 4d 2 3 -1d

                    1 rotation    
                 (   1.00000000000   0.00000000000   0.00000000000 )
                 (   0.00000000000   1.00000000000   0.00000000000 )
                 (   0.00000000000   0.00000000000   1.00000000000 )
                    1 displacement
                 (   0.00000000000   0.00000000000  -0.00000000000 )
                      symmetry related atoms: 
             Si:    1    2

                    2 rotation    
                 (   0.00000000000   0.00000000000   1.00000000000 )
                 (   0.00000000000   1.00000000000   0.00000000000 )
                 (  -1.00000000000   0.00000000000   0.00000000000 )
                    2 displacement
                 (   0.25000000000   0.25000000000   0.25000000000 )
                      symmetry related atoms: 
             Si:    2    1

                    3 rotation    
                 (  -1.00000000000   0.00000000000   0.00000000000 )
                 (   0.00000000000   1.00000000000   0.00000000000 )
                 (   0.00000000000   0.00000000000  -1.00000000000 )
                    3 displacement
                 (   0.00000000000   0.00000000000  -0.00000000000 )
                      symmetry related atoms: 
             Si:    1    2

                    4 rotation    
                 (   0.00000000000   0.00000000000  -1.00000000000 )
                 (   0.00000000000   1.00000000000   0.00000000000 )
                 (   1.00000000000   0.00000000000   0.00000000000 )
                    4 displacement
                 (   0.25000000000   0.25000000000   0.25000000000 )
                      symmetry related atoms: 
             Si:    2    1

                    5 rotation    
                 (  -1.00000000000   0.00000000000   0.00000000000 )
                 (   0.00000000000  -1.00000000000   0.00000000000 )
                 (   0.00000000000   0.00000000000   1.00000000000 )
                    5 displacement
                 (   0.00000000000   0.00000000000  -0.00000000000 )
                      symmetry related atoms: 
             Si:    1    2

                    6 rotation    
                 (   0.00000000000   0.00000000000   1.00000000000 )
                 (   0.00000000000  -1.00000000000   0.00000000000 )
                 (   1.00000000000   0.00000000000   0.00000000000 )
                    6 displacement
                 (   0.25000000000   0.25000000000   0.25000000000 )
                      symmetry related atoms: 
             Si:    2    1

                    7 rotation    
                 (   1.00000000000   0.00000000000   0.00000000000 )
                 (   0.00000000000  -1.00000000000   0.00000000000 )
                 (   0.00000000000   0.00000000000  -1.00000000000 )
                    7 displacement
                 (   0.00000000000   0.00000000000  -0.00000000000 )
                      symmetry related atoms: 
             Si:    1    2

                    8 rotation    
                 (   0.00000000000   0.00000000000  -1.00000000000 )
                 (   0.00000000000  -1.00000000000   0.00000000000 )
                 (  -1.00000000000   0.00000000000   0.00000000000 )
                    8 displacement
                 (   0.25000000000   0.25000000000   0.25000000000 )
                      symmetry related atoms: 
             Si:    2    1

                    9 rotation    
                 (   0.00000000000  -1.00000000000   0.00000000000 )
                 (   0.00000000000   0.00000000000   1.00000000000 )
                 (  -1.00000000000   0.00000000000   0.00000000000 )
                    9 displacement
                 (   0.00000000000   0.00000000000  -0.00000000000 )
                      symmetry related atoms: 
             Si:    1    2

                   10 rotation    
                 (  -1.00000000000   0.00000000000   0.00000000000 )
                 (   0.00000000000   0.00000000000   1.00000000000 )
                 (   0.00000000000   1.00000000000   0.00000000000 )
                   10 displacement
                 (   0.25000000000   0.25000000000   0.25000000000 )
                      symmetry related atoms: 
             Si:    2    1

                   11 rotation    
                 (   0.00000000000   1.00000000000   0.00000000000 )
                 (   0.00000000000   0.00000000000   1.00000000000 )
                 (   1.00000000000   0.00000000000   0.00000000000 )
                   11 displacement
                 (   0.00000000000   0.00000000000  -0.00000000000 )
                      symmetry related atoms: 
             Si:    1    2

                   12 rotation    
                 (   1.00000000000   0.00000000000   0.00000000000 )
                 (   0.00000000000   0.00000000000   1.00000000000 )
                 (   0.00000000000  -1.00000000000   0.00000000000 )
                   12 displacement
                 (   0.25000000000   0.25000000000   0.25000000000 )
                      symmetry related atoms: 
             Si:    2    1

                   13 rotation    
                 (   0.00000000000   1.00000000000   0.00000000000 )
                 (   0.00000000000   0.00000000000  -1.00000000000 )
                 (  -1.00000000000   0.00000000000   0.00000000000 )
                   13 displacement
                 (   0.00000000000   0.00000000000  -0.00000000000 )
                      symmetry related atoms: 
             Si:    1    2

                   14 rotation    
                 (  -1.00000000000   0.00000000000   0.00000000000 )
                 (   0.00000000000   0.00000000000  -1.00000000000 )
                 (   0.00000000000  -1.00000000000   0.00000000000 )
                   14 displacement
                 (   0.25000000000   0.25000000000   0.25000000000 )
                      symmetry related atoms: 
             Si:    2    1

                   15 rotation    
                 (   0.00000000000  -1.00000000000   0.00000000000 )
                 (   0.00000000000   0.00000000000  -1.00000000000 )
                 (   1.00000000000   0.00000000000   0.00000000000 )
                   15 displacement
                 (   0.00000000000   0.00000000000  -0.00000000000 )
                      symmetry related atoms: 
             Si:    1    2

                   16 rotation    
                 (   1.00000000000   0.00000000000   0.00000000000 )
                 (   0.00000000000   0.00000000000  -1.00000000000 )
                 (   0.00000000000   1.00000000000   0.00000000000 )
                   16 displacement
                 (   0.25000000000   0.25000000000   0.25000000000 )
                      symmetry related atoms: 
             Si:    2    1

                   17 rotation    
                 (   0.00000000000   0.00000000000  -1.00000000000 )
                 (  -1.00000000000   0.00000000000   0.00000000000 )
                 (   0.00000000000   1.00000000000   0.00000000000 )
                   17 displacement
                 (   0.00000000000   0.00000000000  -0.00000000000 )
                      symmetry related atoms: 
             Si:    1    2

                   18 rotation    
                 (   0.00000000000   1.00000000000   0.00000000000 )
                 (  -1.00000000000   0.00000000000   0.00000000000 )
                 (   0.00000000000   0.00000000000   1.00000000000 )
                   18 displacement
                 (   0.25000000000   0.25000000000   0.25000000000 )
                      symmetry related atoms: 
             Si:    2    1

                   19 rotation    
                 (   0.00000000000   0.00000000000   1.00000000000 )
                 (  -1.00000000000   0.00000000000   0.00000000000 )
                 (   0.00000000000  -1.00000000000   0.00000000000 )
                   19 displacement
                 (   0.00000000000   0.00000000000  -0.00000000000 )
                      symmetry related atoms: 
             Si:    1    2

                   20 rotation    
                 (   0.00000000000  -1.00000000000   0.00000000000 )
                 (  -1.00000000000   0.00000000000   0.00000000000 )
                 (   0.00000000000   0.00000000000  -1.00000000000 )
                   20 displacement
                 (   0.25000000000   0.25000000000   0.25000000000 )
                      symmetry related atoms: 
             Si:    2    1

                   21 rotation    
                 (   0.00000000000   0.00000000000   1.00000000000 )
                 (   1.00000000000   0.00000000000   0.00000000000 )
                 (   0.00000000000   1.00000000000   0.00000000000 )
                   21 displacement
                 (   0.00000000000   0.00000000000  -0.00000000000 )
                      symmetry related atoms: 
             Si:    1    2

                   22 rotation    
                 (   0.00000000000   1.00000000000   0.00000000000 )
                 (   1.00000000000   0.00000000000   0.00000000000 )
                 (   0.00000000000   0.00000000000  -1.00000000000 )
                   22 displacement
                 (   0.25000000000   0.25000000000   0.25000000000 )
                      symmetry related atoms: 
             Si:    2    1

                   23 rotation    
                 (   0.00000000000   0.00000000000  -1.00000000000 )
                 (   1.00000000000   0.00000000000   0.00000000000 )
                 (   0.00000000000  -1.00000000000   0.00000000000 )
                   23 displacement
                 (   0.00000000000   0.00000000000  -0.00000000000 )
                      symmetry related atoms: 
             Si:    1    2

                   24 rotation    
                 (   0.00000000000  -1.00000000000   0.00000000000 )
                 (   1.00000000000   0.00000000000   0.00000000000 )
                 (   0.00000000000   0.00000000000   1.00000000000 )
                   24 displacement
                 (   0.25000000000   0.25000000000   0.25000000000 )
                      symmetry related atoms: 
             Si:    2    1

                   25 rotation    
                 (  -1.00000000000   0.00000000000   0.00000000000 )
                 (   0.00000000000  -1.00000000000   0.00000000000 )
                 (   0.00000000000   0.00000000000  -1.00000000000 )
                   25 displacement
                 (   0.25000000000   0.25000000000   0.25000000000 )
                      symmetry related atoms: 
             Si:    2    1

                   26 rotation    
                 (   0.00000000000   0.00000000000  -1.00000000000 )
                 (   0.00000000000  -1.00000000000   0.00000000000 )
                 (   1.00000000000   0.00000000000   0.00000000000 )
                   26 displacement
                 (   0.00000000000   0.00000000000  -0.00000000000 )
                      symmetry related atoms: 
             Si:    1    2

                   27 rotation    
                 (   1.00000000000   0.00000000000   0.00000000000 )
                 (   0.00000000000  -1.00000000000   0.00000000000 )
                 (   0.00000000000   0.00000000000   1.00000000000 )
                   27 displacement
                 (   0.25000000000   0.25000000000   0.25000000000 )
                      symmetry related atoms: 
             Si:    2    1

                   28 rotation    
                 (   0.00000000000   0.00000000000   1.00000000000 )
                 (   0.00000000000  -1.00000000000   0.00000000000 )
                 (  -1.00000000000   0.00000000000   0.00000000000 )
                   28 displacement
                 (   0.00000000000   0.00000000000  -0.00000000000 )
                      symmetry related atoms: 
             Si:    1    2

                   29 rotation    
                 (   1.00000000000   0.00000000000   0.00000000000 )
                 (   0.00000000000   1.00000000000   0.00000000000 )
                 (   0.00000000000   0.00000000000  -1.00000000000 )
                   29 displacement
                 (   0.25000000000   0.25000000000   0.25000000000 )
                      symmetry related atoms: 
             Si:    2    1

                   30 rotation    
                 (   0.00000000000   0.00000000000  -1.00000000000 )
                 (   0.00000000000   1.00000000000   0.00000000000 )
                 (  -1.00000000000   0.00000000000   0.00000000000 )
                   30 displacement
                 (   0.00000000000   0.00000000000  -0.00000000000 )
                      symmetry related atoms: 
             Si:    1    2

                   31 rotation    
                 (  -1.00000000000   0.00000000000   0.00000000000 )
                 (   0.00000000000   1.00000000000   0.00000000000 )
                 (   0.00000000000   0.00000000000   1.00000000000 )
                   31 displacement
                 (   0.25000000000   0.25000000000   0.25000000000 )
                      symmetry related atoms: 
             Si:    2    1

                   32 rotation    
                 (   0.00000000000   0.00000000000   1.00000000000 )
                 (   0.00000000000   1.00000000000   0.00000000000 )
                 (   1.00000000000   0.00000000000   0.00000000000 )
                   32 displacement
                 (   0.00000000000   0.00000000000  -0.00000000000 )
                      symmetry related atoms: 
             Si:    1    2

                   33 rotation    
                 (   0.00000000000   1.00000000000   0.00000000000 )
                 (   0.00000000000   0.00000000000  -1.00000000000 )
                 (   1.00000000000   0.00000000000   0.00000000000 )
                   33 displacement
                 (   0.25000000000   0.25000000000   0.25000000000 )
                      symmetry related atoms: 
             Si:    2    1

                   34 rotation    
                 (   1.00000000000   0.00000000000   0.00000000000 )
                 (   0.00000000000   0.00000000000  -1.00000000000 )
                 (   0.00000000000  -1.00000000000   0.00000000000 )
                   34 displacement
                 (   0.00000000000   0.00000000000  -0.00000000000 )
                      symmetry related atoms: 
             Si:    1    2

                   35 rotation    
                 (   0.00000000000  -1.00000000000   0.00000000000 )
                 (   0.00000000000   0.00000000000  -1.00000000000 )
                 (  -1.00000000000   0.00000000000   0.00000000000 )
                   35 displacement
                 (   0.25000000000   0.25000000000   0.25000000000 )
                      symmetry related atoms: 
             Si:    2    1

                   36 rotation    
                 (  -1.00000000000   0.00000000000   0.00000000000 )
                 (   0.00000000000   0.00000000000  -1.00000000000 )
                 (   0.00000000000   1.00000000000   0.00000000000 )
                   36 displacement
                 (   0.00000000000   0.00000000000  -0.00000000000 )
                      symmetry related atoms: 
             Si:    1    2

                   37 rotation    
                 (   0.00000000000  -1.00000000000   0.00000000000 )
                 (   0.00000000000   0.00000000000   1.00000000000 )
                 (   1.00000000000   0.00000000000   0.00000000000 )
                   37 displacement
                 (   0.25000000000   0.25000000000   0.25000000000 )
                      symmetry related atoms: 
             Si:    2    1

                   38 rotation    
                 (   1.00000000000   0.00000000000   0.00000000000 )
                 (   0.00000000000   0.00000000000   1.00000000000 )
                 (   0.00000000000   1.00000000000   0.00000000000 )
                   38 displacement
                 (   0.00000000000   0.00000000000  -0.00000000000 )
                      symmetry related atoms: 
             Si:    1    2

                   39 rotation    
                 (   0.00000000000   1.00000000000   0.00000000000 )
                 (   0.00000000000   0.00000000000   1.00000000000 )
                 (  -1.00000000000   0.00000000000   0.00000000000 )
                   39 displacement
                 (   0.25000000000   0.25000000000   0.25000000000 )
                      symmetry related atoms: 
             Si:    2    1

                   40 rotation    
                 (  -1.00000000000   0.00000000000   0.00000000000 )
                 (   0.00000000000   0.00000000000   1.00000000000 )
                 (   0.00000000000  -1.00000000000   0.00000000000 )
                   40 displacement
                 (   0.00000000000   0.00000000000  -0.00000000000 )
                      symmetry related atoms: 
             Si:    1    2

                   41 rotation    
                 (   0.00000000000   0.00000000000   1.00000000000 )
                 (   1.00000000000   0.00000000000   0.00000000000 )
                 (   0.00000000000  -1.00000000000   0.00000000000 )
                   41 displacement
                 (   0.25000000000   0.25000000000   0.25000000000 )
                      symmetry related atoms: 
             Si:    2    1

                   42 rotation    
                 (   0.00000000000  -1.00000000000   0.00000000000 )
                 (   1.00000000000   0.00000000000   0.00000000000 )
                 (   0.00000000000   0.00000000000  -1.00000000000 )
                   42 displacement
                 (   0.00000000000   0.00000000000  -0.00000000000 )
                      symmetry related atoms: 
             Si:    1    2

                   43 rotation    
                 (   0.00000000000   0.00000000000  -1.00000000000 )
                 (   1.00000000000   0.00000000000   0.00000000000 )
                 (   0.00000000000   1.00000000000   0.00000000000 )
                   43 displacement
                 (   0.25000000000   0.25000000000   0.25000000000 )
                      symmetry related atoms: 
             Si:    2    1

                   44 rotation    
                 (   0.00000000000   1.00000000000   0.00000000000 )
                 (   1.00000000000   0.00000000000   0.00000000000 )
                 (   0.00000000000   0.00000000000   1.00000000000 )
                   44 displacement
                 (   0.00000000000   0.00000000000  -0.00000000000 )
                      symmetry related atoms: 
             Si:    1    2

                   45 rotation    
                 (   0.00000000000   0.00000000000  -1.00000000000 )
                 (  -1.00000000000   0.00000000000   0.00000000000 )
                 (   0.00000000000  -1.00000000000   0.00000000000 )
                   45 displacement
                 (   0.25000000000   0.25000000000   0.25000000000 )
                      symmetry related atoms: 
             Si:    2    1

                   46 rotation    
                 (   0.00000000000  -1.00000000000   0.00000000000 )
                 (  -1.00000000000   0.00000000000   0.00000000000 )
                 (   0.00000000000   0.00000000000   1.00000000000 )
                   46 displacement
                 (   0.00000000000   0.00000000000  -0.00000000000 )
                      symmetry related atoms: 
             Si:    1    2

                   47 rotation    
                 (   0.00000000000   0.00000000000   1.00000000000 )
                 (  -1.00000000000   0.00000000000   0.00000000000 )
                 (   0.00000000000   1.00000000000   0.00000000000 )
                   47 displacement
                 (   0.25000000000   0.25000000000   0.25000000000 )
                      symmetry related atoms: 
             Si:    2    1

                   48 rotation    
                 (   0.00000000000   1.00000000000   0.00000000000 )
                 (  -1.00000000000   0.00000000000   0.00000000000 )
                 (   0.00000000000   0.00000000000  -1.00000000000 )
                   48 displacement
                 (   0.00000000000   0.00000000000  -0.00000000000 )
                      symmetry related atoms: 
             Si:    1    2


                         Centre of mass is constrained

            xxxxxxxxxxxxxxxxxxxxxxxxxxxxxxxxxxxxxxxxxxxxxxxxxxxxxxxxx....
            x  Species  atom   co-ordinate  constraints.....         
            x--------------------------------------------------------....
            x Si           1       x        51196.7345      0.0000      0.0000
            x Si           1       y            0.0000  51196.7345      0.0000
            x Si           1       z            0.0000      0.0000  51196.7345
            x Si           2       x        51196.7345      0.0000      0.0000
            x Si           2       y            0.0000  51196.7345      0.0000
            x Si           2       z            0.0000      0.0000  51196.7345
            xxxxxxxxxxxxxxxxxxxxxxxxxxxxxxxxxxxxxxxxxxxxxxxxxxxxxxxxx....

                         Number of cell constraints= 5
                         Cell constraints are:  1 1 1 0 0 0

                         External pressure/stress (GPa)
                          0.00000   0.00000   0.00000
                                    0.00000   0.00000
                                              0.00000
  
+---------------- MEMORY AND SCRATCH DISK ESTIMATES PER PROCESS --------------+
|                                                     Memory          Disk    |
| Baseline code, static data and system overhead        0.0 MB         0.0 MB |
| BLAS internal memory storage                          0.0 MB         0.0 MB |
| Model and support data                                3.1 MB         0.0 MB |
| Non-local exact exchange data                        53.8 MB         0.0 MB |
| Electronic energy minimisation requirements           1.2 MB         0.0 MB |
| Force calculation requirements                        0.5 MB         0.0 MB |
|                                               ----------------------------- |
| Approx. total storage required per process           55.0 MB         0.0 MB |
|                                                                             |
| Requirements will fluctuate during execution and may exceed these estimates |
+-----------------------------------------------------------------------------+
 
Init
Total energy                     =       184.26626299258117569 eV
------------------------------------------------------------------------ <-- SCF
SCF loop      Energy                           Energy gain       Timer   <-- SCF
                                               per atom          (sec)   <-- SCF
------------------------------------------------------------------------ <-- SCF
Initial   1.84266263E+002                                          4.54  <-- SCF
 +-------------------------------------------------+
 |                                                 |
 |      CCC   AA    SSS  TTTTT  EEEEE  PPPP        |
 |     C     A  A  S       T    E      P   P       |
 |     C     AAAA   SS     T    EEE    PPPP        |
 |     C     A  A     S    T    E      P           |
 |      CCC  A  A  SSS     T    EEEEE  P           |
 |                                                 |
 +-------------------------------------------------+
 |                                                 |
 | Welcome to Academic Release CASTEP version 16.1 |          
 | Ab Initio Total Energy Program                  |
 |                                                 |
 | Authors:                                        |
 | M. Segall, M. Probert, C. Pickard, P. Hasnip,   |
 | S. Clark, K. Refson, J. R. Yates, M. Payne      |
 |                                                 |
 | Contributors:                                   |
 | P. Lindan, P. Haynes, J. White, V. Milman,      |
 | N. Govind, M. Gibson, P. Tulip, V. Cocula,      |
 | B. Montanari, D. Quigley, M. Glover,            |
 | L. Bernasconi, A. Perlov, M. Plummer,           |
 | E. McNellis, J. Meyer, J. Gale, D. Jochym       |
 | J. Aarons, B. Walker, R. Gillen, D. Jones       |
 | T. Green, I. J. Bush, C. J. Armstrong,          |
 | E. J. Higgins, E. L. Brown, M. S. McFly         |
 |                                                 |
 | Copyright (c) 2000 - 2015                       |
 |                                                 |
 |     Distributed under the terms of an           |
 |     Agreement between the United Kingdom        |
 |     Car-Parrinello (UKCP) Consortium,           |
 |     Daresbury Laboratory and Accelrys, Inc.     |
 |                                                 |
 | Please cite                                     |
 |                                                 |
 |     "First principles methods using CASTEP"     |
 |                                                 |
 |         Zeitschrift fuer Kristallographie       |
 |           220(5-6) pp. 567-570 (2005)           |
 |                                                 |
 | S. J. Clark, M. D. Segall, C. J. Pickard,       |
 | P. J. Hasnip, M. J. Probert, K. Refson,         |
 | M. C. Payne                                     |
 |                                                 |
 |       in all publications arising from          |
 |              your use of CASTEP                 |
 |                                                 |
 +-------------------------------------------------+


 Compiled for darwin_x86_64_gfortran5.0 on Fri, 19 Feb 2016 13:44:46 +0000
 from code version Version unavailable
 Compiler: GNU Fortran 5.3.0; Optimisation: intermediate
 MATHLIBS: default (LAPACK version 3.2.1)
 FFT Lib : default
 Fundamental constants values: CODATA 2010

 Run started: Mon, 22 Feb 2016 16:53:34 +0000

 ******************************* User Parameters *******************************
iprint                : 2             # verbosity control (I)
task                  : bandstructure # type of calculation (S)
calculatedensdiff     : T             # calculate density difference based on atoms (L)
writeformatteddensity : T             # formatted density on/off (L)
optstrategy           : speed         # optimization strategy (S)
xcfunctional          : b3lyp         # exchange-correlation functional (S)
basisprecision        : MEDIUM        # accuracy of basis set (S)
spinpolarised         : F             # spin polarised (L)
fixoccupancy          : T             # treat system as an insulator (L)
numdumpcycles         : 0             # frequency of wavefunction dumps (I)

 *******************************************************************************
  

 Pseudo atomic calculation performed for Si 3s2 3p2

 Converged in 16 iterations to a total energy of -101.8630 eV

Initialising basis set.

Standard grid dimensions:  16  16  16
Fine grid dimensions:      16  16  16

Plane wave load balancing: max    265 min    243 average    252
True cut-off energy of basis :   7.332
 Calculation not parallelised.

 ************************************ Title ************************************
 

 ***************************** General Parameters ******************************
  
 output verbosity                               : verbose (2)
 write checkpoint data to                       : Si2.check
 type of calculation                            : band structure
 stress calculation                             : off
 density difference calculation                 : on
 electron localisation func (ELF) calculation   : off
 Hirshfeld analysis                             : off
 unlimited duration calculation
 timing information                             : on
 memory usage estimate                          : on
 write final potential to formatted file        : off
 write final density to formatted file          : on
 write BibTeX reference list                    : on
 write OTFG pseudopotential files               : on
 checkpoint writing                             : both castep_bin and check files
  
 output         length unit                     : A
 output           mass unit                     : amu
 output           time unit                     : ps
 output         charge unit                     : e
 output           spin unit                     : hbar/2
 output         energy unit                     : eV
 output          force unit                     : eV/A
 output       velocity unit                     : A/ps
 output       pressure unit                     : GPa
 output     inv_length unit                     : 1/A
 output      frequency unit                     : cm-1
 output force constant unit                     : eV/A**2
 output         volume unit                     : A**3
 output   IR intensity unit                     : (D/A)**2/amu
 output         dipole unit                     : D
 output         efield unit                     : eV/A/e
 output        entropy unit                     : J/mol/K
  
 wavefunctions paging                           : none
 random number generator seed                   : randomised (165334908)
 data distribution                              : optimal for this architecture
 optimization strategy                          : maximize speed(+++)

 *********************** Exchange-Correlation Parameters ***********************
  
 using functional                               : hybrid B3LYP
 relativistic treatment                         : Koelling-Harmon
 DFT+D: Semi-empirical dispersion correction    : off

 ************************* Pseudopotential Parameters **************************
  
 pseudopotential representation                 : reciprocal space
 <beta|phi> representation                      : reciprocal space
 spin-orbit coupling                            : off

 **************************** Basis Set Parameters *****************************
  
 basis set accuracy                             : MEDIUM
 plane wave basis set cut-off                   :   200.0000   eV
 size of standard grid                          :     1.7500
 size of   fine   gmax                          :    12.6792   1/A
 finite basis set correction                    : none

 **************************** Electronic Parameters ****************************
  
 number of  electrons                           :  8.000    
 net charge of system                           :  0.000    
 treating system as non-spin-polarized
 number of bands                                :          4

 ********************* Electronic Minimization Parameters **********************
  
 Method: Treating system as non-metallic,
         and number of  SD  steps               :          1
         and number of  CG  steps               :          4
  
 total energy / atom convergence tol.           : 0.1000E-04   eV
 max force / atom convergence tol.              : ignored
 convergence tolerance window                   :          3   cycles
 max. number of SCF cycles                      :         30
 periodic dipole correction                     : NONE

 *********************** Population Analysis Parameters ************************
  
 Population analysis with cutoff                :  3.000       A

 ************************** Band Structure Parameters **************************
  
 max. number of iterations                      :         60
 max. CG steps in BS calc                       :         25
 number of bands / k-point                      :         14
 band convergence tolerance                     : 0.1000E-05   eV
 write orbitals file                            : on

 *******************************************************************************
  

                           -------------------------------
                                      Unit Cell
                           -------------------------------
        Real Lattice(A)                      Reciprocal Lattice(1/A)
   2.6954645   2.6954645   0.0000000        1.1655107   1.1655107  -1.1655107
   2.6954645   0.0000000   2.6954645        1.1655107  -1.1655107   1.1655107
   0.0000000   2.6954645   2.6954645       -1.1655107   1.1655107   1.1655107

                       Lattice parameters(A)       Cell Angles
                    a =    3.811962          alpha =   60.000000
                    b =    3.811962          beta  =   60.000000
                    c =    3.811962          gamma =   60.000000

                       Current cell volume =   39.167950       A**3

                           -------------------------------
                                     Cell Contents
                           -------------------------------
                         Total number of ions in cell =    2
                      Total number of species in cell =    1
                        Max number of any one species =    2

            xxxxxxxxxxxxxxxxxxxxxxxxxxxxxxxxxxxxxxxxxxxxxxxxxxxxxxxxxxxx
            x  Element    Atom        Fractional coordinates of atoms  x
            x            Number           u          v          w      x
            x----------------------------------------------------------x
            x  Si           1         0.000000   0.000000   0.000000   x 
            x  Si           2         0.250000   0.250000   0.250000   x 
            xxxxxxxxxxxxxxxxxxxxxxxxxxxxxxxxxxxxxxxxxxxxxxxxxxxxxxxxxxxx


                         No user defined ionic velocities

                           -------------------------------
                                   Details of Species
                           -------------------------------

                               Mass of species in AMU
                                    Si   28.0855000

                          Electric Quadrupole Moment (Barn)
                                    Si    1.0000000 No Isotope Defined

                          Files used for pseudopotentials:
                                    Si Si_00.recpot

                           -------------------------------
                              k-Points For BZ Sampling
                           -------------------------------
                       MP grid size for SCF calculation is  4  4  4
                            with an offset of   0.000  0.000  0.000
                       Number of kpoints used =            10

             +++++++++++++++++++++++++++++++++++++++++++++++++++++++
             +  Number       Fractional coordinates        Weight  +
             +-----------------------------------------------------+
             +     1  -0.375000  -0.125000  -0.375000   0.0937500  +
             +     2  -0.375000   0.375000   0.375000   0.0937500  +
             +     3  -0.125000  -0.375000  -0.125000   0.0937500  +
             +     4  -0.125000   0.375000   0.375000   0.0937500  +
             +     5   0.125000  -0.375000  -0.125000   0.1875000  +
             +     6   0.125000  -0.375000   0.125000   0.0937500  +
             +     7   0.125000  -0.125000  -0.125000   0.0937500  +
             +     8   0.125000   0.125000   0.125000   0.0312500  +
             +     9   0.375000  -0.375000   0.125000   0.1875000  +
             +    10   0.375000   0.375000   0.375000   0.0312500  +
             +++++++++++++++++++++++++++++++++++++++++++++++++++++++

                           -------------------------------
                               Symmetry and Constraints
                           -------------------------------

                      Maximum deviation from symmetry =  0.00000         ANG

                      Number of symmetry operations   =          48
                      Number of ionic constraints     =           3
                      Point group of crystal =    32: Oh, m-3m, 4/m -3 2/m
                      Space group of crystal =   227: Fd-3m, F 4d 2 3 -1d

                    1 rotation    
                 (   1.00000000000   0.00000000000   0.00000000000 )
                 (   0.00000000000   1.00000000000   0.00000000000 )
                 (   0.00000000000   0.00000000000   1.00000000000 )
                    1 displacement
                 (   0.00000000000   0.00000000000  -0.00000000000 )
                      symmetry related atoms: 
             Si:    1    2

                    2 rotation    
                 (   0.00000000000   0.00000000000   1.00000000000 )
                 (   0.00000000000   1.00000000000   0.00000000000 )
                 (  -1.00000000000   0.00000000000   0.00000000000 )
                    2 displacement
                 (   0.25000000000   0.25000000000   0.25000000000 )
                      symmetry related atoms: 
             Si:    2    1

                    3 rotation    
                 (  -1.00000000000   0.00000000000   0.00000000000 )
                 (   0.00000000000   1.00000000000   0.00000000000 )
                 (   0.00000000000   0.00000000000  -1.00000000000 )
                    3 displacement
                 (   0.00000000000   0.00000000000  -0.00000000000 )
                      symmetry related atoms: 
             Si:    1    2

                    4 rotation    
                 (   0.00000000000   0.00000000000  -1.00000000000 )
                 (   0.00000000000   1.00000000000   0.00000000000 )
                 (   1.00000000000   0.00000000000   0.00000000000 )
                    4 displacement
                 (   0.25000000000   0.25000000000   0.25000000000 )
                      symmetry related atoms: 
             Si:    2    1

                    5 rotation    
                 (  -1.00000000000   0.00000000000   0.00000000000 )
                 (   0.00000000000  -1.00000000000   0.00000000000 )
                 (   0.00000000000   0.00000000000   1.00000000000 )
                    5 displacement
                 (   0.00000000000   0.00000000000  -0.00000000000 )
                      symmetry related atoms: 
             Si:    1    2

                    6 rotation    
                 (   0.00000000000   0.00000000000   1.00000000000 )
                 (   0.00000000000  -1.00000000000   0.00000000000 )
                 (   1.00000000000   0.00000000000   0.00000000000 )
                    6 displacement
                 (   0.25000000000   0.25000000000   0.25000000000 )
                      symmetry related atoms: 
             Si:    2    1

                    7 rotation    
                 (   1.00000000000   0.00000000000   0.00000000000 )
                 (   0.00000000000  -1.00000000000   0.00000000000 )
                 (   0.00000000000   0.00000000000  -1.00000000000 )
                    7 displacement
                 (   0.00000000000   0.00000000000  -0.00000000000 )
                      symmetry related atoms: 
             Si:    1    2

                    8 rotation    
                 (   0.00000000000   0.00000000000  -1.00000000000 )
                 (   0.00000000000  -1.00000000000   0.00000000000 )
                 (  -1.00000000000   0.00000000000   0.00000000000 )
                    8 displacement
                 (   0.25000000000   0.25000000000   0.25000000000 )
                      symmetry related atoms: 
             Si:    2    1

                    9 rotation    
                 (   0.00000000000  -1.00000000000   0.00000000000 )
                 (   0.00000000000   0.00000000000   1.00000000000 )
                 (  -1.00000000000   0.00000000000   0.00000000000 )
                    9 displacement
                 (   0.00000000000   0.00000000000  -0.00000000000 )
                      symmetry related atoms: 
             Si:    1    2

                   10 rotation    
                 (  -1.00000000000   0.00000000000   0.00000000000 )
                 (   0.00000000000   0.00000000000   1.00000000000 )
                 (   0.00000000000   1.00000000000   0.00000000000 )
                   10 displacement
                 (   0.25000000000   0.25000000000   0.25000000000 )
                      symmetry related atoms: 
             Si:    2    1

                   11 rotation    
                 (   0.00000000000   1.00000000000   0.00000000000 )
                 (   0.00000000000   0.00000000000   1.00000000000 )
                 (   1.00000000000   0.00000000000   0.00000000000 )
                   11 displacement
                 (   0.00000000000   0.00000000000  -0.00000000000 )
                      symmetry related atoms: 
             Si:    1    2

                   12 rotation    
                 (   1.00000000000   0.00000000000   0.00000000000 )
                 (   0.00000000000   0.00000000000   1.00000000000 )
                 (   0.00000000000  -1.00000000000   0.00000000000 )
                   12 displacement
                 (   0.25000000000   0.25000000000   0.25000000000 )
                      symmetry related atoms: 
             Si:    2    1

                   13 rotation    
                 (   0.00000000000   1.00000000000   0.00000000000 )
                 (   0.00000000000   0.00000000000  -1.00000000000 )
                 (  -1.00000000000   0.00000000000   0.00000000000 )
                   13 displacement
                 (   0.00000000000   0.00000000000  -0.00000000000 )
                      symmetry related atoms: 
             Si:    1    2

                   14 rotation    
                 (  -1.00000000000   0.00000000000   0.00000000000 )
                 (   0.00000000000   0.00000000000  -1.00000000000 )
                 (   0.00000000000  -1.00000000000   0.00000000000 )
                   14 displacement
                 (   0.25000000000   0.25000000000   0.25000000000 )
                      symmetry related atoms: 
             Si:    2    1

                   15 rotation    
                 (   0.00000000000  -1.00000000000   0.00000000000 )
                 (   0.00000000000   0.00000000000  -1.00000000000 )
                 (   1.00000000000   0.00000000000   0.00000000000 )
                   15 displacement
                 (   0.00000000000   0.00000000000  -0.00000000000 )
                      symmetry related atoms: 
             Si:    1    2

                   16 rotation    
                 (   1.00000000000   0.00000000000   0.00000000000 )
                 (   0.00000000000   0.00000000000  -1.00000000000 )
                 (   0.00000000000   1.00000000000   0.00000000000 )
                   16 displacement
                 (   0.25000000000   0.25000000000   0.25000000000 )
                      symmetry related atoms: 
             Si:    2    1

                   17 rotation    
                 (   0.00000000000   0.00000000000  -1.00000000000 )
                 (  -1.00000000000   0.00000000000   0.00000000000 )
                 (   0.00000000000   1.00000000000   0.00000000000 )
                   17 displacement
                 (   0.00000000000   0.00000000000  -0.00000000000 )
                      symmetry related atoms: 
             Si:    1    2

                   18 rotation    
                 (   0.00000000000   1.00000000000   0.00000000000 )
                 (  -1.00000000000   0.00000000000   0.00000000000 )
                 (   0.00000000000   0.00000000000   1.00000000000 )
                   18 displacement
                 (   0.25000000000   0.25000000000   0.25000000000 )
                      symmetry related atoms: 
             Si:    2    1

                   19 rotation    
                 (   0.00000000000   0.00000000000   1.00000000000 )
                 (  -1.00000000000   0.00000000000   0.00000000000 )
                 (   0.00000000000  -1.00000000000   0.00000000000 )
                   19 displacement
                 (   0.00000000000   0.00000000000  -0.00000000000 )
                      symmetry related atoms: 
             Si:    1    2

                   20 rotation    
                 (   0.00000000000  -1.00000000000   0.00000000000 )
                 (  -1.00000000000   0.00000000000   0.00000000000 )
                 (   0.00000000000   0.00000000000  -1.00000000000 )
                   20 displacement
                 (   0.25000000000   0.25000000000   0.25000000000 )
                      symmetry related atoms: 
             Si:    2    1

                   21 rotation    
                 (   0.00000000000   0.00000000000   1.00000000000 )
                 (   1.00000000000   0.00000000000   0.00000000000 )
                 (   0.00000000000   1.00000000000   0.00000000000 )
                   21 displacement
                 (   0.00000000000   0.00000000000  -0.00000000000 )
                      symmetry related atoms: 
             Si:    1    2

                   22 rotation    
                 (   0.00000000000   1.00000000000   0.00000000000 )
                 (   1.00000000000   0.00000000000   0.00000000000 )
                 (   0.00000000000   0.00000000000  -1.00000000000 )
                   22 displacement
                 (   0.25000000000   0.25000000000   0.25000000000 )
                      symmetry related atoms: 
             Si:    2    1

                   23 rotation    
                 (   0.00000000000   0.00000000000  -1.00000000000 )
                 (   1.00000000000   0.00000000000   0.00000000000 )
                 (   0.00000000000  -1.00000000000   0.00000000000 )
                   23 displacement
                 (   0.00000000000   0.00000000000  -0.00000000000 )
                      symmetry related atoms: 
             Si:    1    2

                   24 rotation    
                 (   0.00000000000  -1.00000000000   0.00000000000 )
                 (   1.00000000000   0.00000000000   0.00000000000 )
                 (   0.00000000000   0.00000000000   1.00000000000 )
                   24 displacement
                 (   0.25000000000   0.25000000000   0.25000000000 )
                      symmetry related atoms: 
             Si:    2    1

                   25 rotation    
                 (  -1.00000000000   0.00000000000   0.00000000000 )
                 (   0.00000000000  -1.00000000000   0.00000000000 )
                 (   0.00000000000   0.00000000000  -1.00000000000 )
                   25 displacement
                 (   0.25000000000   0.25000000000   0.25000000000 )
                      symmetry related atoms: 
             Si:    2    1

                   26 rotation    
                 (   0.00000000000   0.00000000000  -1.00000000000 )
                 (   0.00000000000  -1.00000000000   0.00000000000 )
                 (   1.00000000000   0.00000000000   0.00000000000 )
                   26 displacement
                 (   0.00000000000   0.00000000000  -0.00000000000 )
                      symmetry related atoms: 
             Si:    1    2

                   27 rotation    
                 (   1.00000000000   0.00000000000   0.00000000000 )
                 (   0.00000000000  -1.00000000000   0.00000000000 )
                 (   0.00000000000   0.00000000000   1.00000000000 )
                   27 displacement
                 (   0.25000000000   0.25000000000   0.25000000000 )
                      symmetry related atoms: 
             Si:    2    1

                   28 rotation    
                 (   0.00000000000   0.00000000000   1.00000000000 )
                 (   0.00000000000  -1.00000000000   0.00000000000 )
                 (  -1.00000000000   0.00000000000   0.00000000000 )
                   28 displacement
                 (   0.00000000000   0.00000000000  -0.00000000000 )
                      symmetry related atoms: 
             Si:    1    2

                   29 rotation    
                 (   1.00000000000   0.00000000000   0.00000000000 )
                 (   0.00000000000   1.00000000000   0.00000000000 )
                 (   0.00000000000   0.00000000000  -1.00000000000 )
                   29 displacement
                 (   0.25000000000   0.25000000000   0.25000000000 )
                      symmetry related atoms: 
             Si:    2    1

                   30 rotation    
                 (   0.00000000000   0.00000000000  -1.00000000000 )
                 (   0.00000000000   1.00000000000   0.00000000000 )
                 (  -1.00000000000   0.00000000000   0.00000000000 )
                   30 displacement
                 (   0.00000000000   0.00000000000  -0.00000000000 )
                      symmetry related atoms: 
             Si:    1    2

                   31 rotation    
                 (  -1.00000000000   0.00000000000   0.00000000000 )
                 (   0.00000000000   1.00000000000   0.00000000000 )
                 (   0.00000000000   0.00000000000   1.00000000000 )
                   31 displacement
                 (   0.25000000000   0.25000000000   0.25000000000 )
                      symmetry related atoms: 
             Si:    2    1

                   32 rotation    
                 (   0.00000000000   0.00000000000   1.00000000000 )
                 (   0.00000000000   1.00000000000   0.00000000000 )
                 (   1.00000000000   0.00000000000   0.00000000000 )
                   32 displacement
                 (   0.00000000000   0.00000000000  -0.00000000000 )
                      symmetry related atoms: 
             Si:    1    2

                   33 rotation    
                 (   0.00000000000   1.00000000000   0.00000000000 )
                 (   0.00000000000   0.00000000000  -1.00000000000 )
                 (   1.00000000000   0.00000000000   0.00000000000 )
                   33 displacement
                 (   0.25000000000   0.25000000000   0.25000000000 )
                      symmetry related atoms: 
             Si:    2    1

                   34 rotation    
                 (   1.00000000000   0.00000000000   0.00000000000 )
                 (   0.00000000000   0.00000000000  -1.00000000000 )
                 (   0.00000000000  -1.00000000000   0.00000000000 )
                   34 displacement
                 (   0.00000000000   0.00000000000  -0.00000000000 )
                      symmetry related atoms: 
             Si:    1    2

                   35 rotation    
                 (   0.00000000000  -1.00000000000   0.00000000000 )
                 (   0.00000000000   0.00000000000  -1.00000000000 )
                 (  -1.00000000000   0.00000000000   0.00000000000 )
                   35 displacement
                 (   0.25000000000   0.25000000000   0.25000000000 )
                      symmetry related atoms: 
             Si:    2    1

                   36 rotation    
                 (  -1.00000000000   0.00000000000   0.00000000000 )
                 (   0.00000000000   0.00000000000  -1.00000000000 )
                 (   0.00000000000   1.00000000000   0.00000000000 )
                   36 displacement
                 (   0.00000000000   0.00000000000  -0.00000000000 )
                      symmetry related atoms: 
             Si:    1    2

                   37 rotation    
                 (   0.00000000000  -1.00000000000   0.00000000000 )
                 (   0.00000000000   0.00000000000   1.00000000000 )
                 (   1.00000000000   0.00000000000   0.00000000000 )
                   37 displacement
                 (   0.25000000000   0.25000000000   0.25000000000 )
                      symmetry related atoms: 
             Si:    2    1

                   38 rotation    
                 (   1.00000000000   0.00000000000   0.00000000000 )
                 (   0.00000000000   0.00000000000   1.00000000000 )
                 (   0.00000000000   1.00000000000   0.00000000000 )
                   38 displacement
                 (   0.00000000000   0.00000000000  -0.00000000000 )
                      symmetry related atoms: 
             Si:    1    2

                   39 rotation    
                 (   0.00000000000   1.00000000000   0.00000000000 )
                 (   0.00000000000   0.00000000000   1.00000000000 )
                 (  -1.00000000000   0.00000000000   0.00000000000 )
                   39 displacement
                 (   0.25000000000   0.25000000000   0.25000000000 )
                      symmetry related atoms: 
             Si:    2    1

                   40 rotation    
                 (  -1.00000000000   0.00000000000   0.00000000000 )
                 (   0.00000000000   0.00000000000   1.00000000000 )
                 (   0.00000000000  -1.00000000000   0.00000000000 )
                   40 displacement
                 (   0.00000000000   0.00000000000  -0.00000000000 )
                      symmetry related atoms: 
             Si:    1    2

                   41 rotation    
                 (   0.00000000000   0.00000000000   1.00000000000 )
                 (   1.00000000000   0.00000000000   0.00000000000 )
                 (   0.00000000000  -1.00000000000   0.00000000000 )
                   41 displacement
                 (   0.25000000000   0.25000000000   0.25000000000 )
                      symmetry related atoms: 
             Si:    2    1

                   42 rotation    
                 (   0.00000000000  -1.00000000000   0.00000000000 )
                 (   1.00000000000   0.00000000000   0.00000000000 )
                 (   0.00000000000   0.00000000000  -1.00000000000 )
                   42 displacement
                 (   0.00000000000   0.00000000000  -0.00000000000 )
                      symmetry related atoms: 
             Si:    1    2

                   43 rotation    
                 (   0.00000000000   0.00000000000  -1.00000000000 )
                 (   1.00000000000   0.00000000000   0.00000000000 )
                 (   0.00000000000   1.00000000000   0.00000000000 )
                   43 displacement
                 (   0.25000000000   0.25000000000   0.25000000000 )
                      symmetry related atoms: 
             Si:    2    1

                   44 rotation    
                 (   0.00000000000   1.00000000000   0.00000000000 )
                 (   1.00000000000   0.00000000000   0.00000000000 )
                 (   0.00000000000   0.00000000000   1.00000000000 )
                   44 displacement
                 (   0.00000000000   0.00000000000  -0.00000000000 )
                      symmetry related atoms: 
             Si:    1    2

                   45 rotation    
                 (   0.00000000000   0.00000000000  -1.00000000000 )
                 (  -1.00000000000   0.00000000000   0.00000000000 )
                 (   0.00000000000  -1.00000000000   0.00000000000 )
                   45 displacement
                 (   0.25000000000   0.25000000000   0.25000000000 )
                      symmetry related atoms: 
             Si:    2    1

                   46 rotation    
                 (   0.00000000000  -1.00000000000   0.00000000000 )
                 (  -1.00000000000   0.00000000000   0.00000000000 )
                 (   0.00000000000   0.00000000000   1.00000000000 )
                   46 displacement
                 (   0.00000000000   0.00000000000  -0.00000000000 )
                      symmetry related atoms: 
             Si:    1    2

                   47 rotation    
                 (   0.00000000000   0.00000000000   1.00000000000 )
                 (  -1.00000000000   0.00000000000   0.00000000000 )
                 (   0.00000000000   1.00000000000   0.00000000000 )
                   47 displacement
                 (   0.25000000000   0.25000000000   0.25000000000 )
                      symmetry related atoms: 
             Si:    2    1

                   48 rotation    
                 (   0.00000000000   1.00000000000   0.00000000000 )
                 (  -1.00000000000   0.00000000000   0.00000000000 )
                 (   0.00000000000   0.00000000000  -1.00000000000 )
                   48 displacement
                 (   0.00000000000   0.00000000000  -0.00000000000 )
                      symmetry related atoms: 
             Si:    1    2


                         Centre of mass is constrained

            xxxxxxxxxxxxxxxxxxxxxxxxxxxxxxxxxxxxxxxxxxxxxxxxxxxxxxxxx....
            x  Species  atom   co-ordinate  constraints.....         
            x--------------------------------------------------------....
            x Si           1       x        51196.7345      0.0000      0.0000
            x Si           1       y            0.0000  51196.7345      0.0000
            x Si           1       z            0.0000      0.0000  51196.7345
            x Si           2       x        51196.7345      0.0000      0.0000
            x Si           2       y            0.0000  51196.7345      0.0000
            x Si           2       z            0.0000      0.0000  51196.7345
            xxxxxxxxxxxxxxxxxxxxxxxxxxxxxxxxxxxxxxxxxxxxxxxxxxxxxxxxx....

                         Number of cell constraints= 5
                         Cell constraints are:  1 1 1 0 0 0

                         External pressure/stress (GPa)
                          0.00000   0.00000   0.00000
                                    0.00000   0.00000
                                              0.00000
  
+---------------- MEMORY AND SCRATCH DISK ESTIMATES PER PROCESS --------------+
|                                                     Memory          Disk    |
| Baseline code, static data and system overhead        0.0 MB         0.0 MB |
| BLAS internal memory storage                          0.0 MB         0.0 MB |
| Model and support data                                3.1 MB         0.0 MB |
| Non-local exact exchange data                        53.8 MB         0.0 MB |
| Electronic energy minimisation requirements           1.2 MB         0.0 MB |
| Force calculation requirements                        0.5 MB         0.0 MB |
|                                               ----------------------------- |
| Approx. total storage required per process           55.0 MB         0.0 MB |
|                                                                             |
| Requirements will fluctuate during execution and may exceed these estimates |
+-----------------------------------------------------------------------------+
 
Init
Total energy                     =       181.33426459556451960 eV
------------------------------------------------------------------------ <-- SCF
SCF loop      Energy                           Energy gain       Timer   <-- SCF
                                               per atom          (sec)   <-- SCF
------------------------------------------------------------------------ <-- SCF
Initial   1.81334265E+002                                          4.53  <-- SCF
+------------------- WAVEFUNCTION LINE MINIMISATION --------------------+<- line
| Initial energy =  1.813343E+002 eV; initial dE/dstep = -2.994E+002 eV |<- line
|                                                                       |<- line
|            1st step    2nd step    3rd step    4th step    5th step   |<- line
+--------+--------------------------------------------------------------+<- line
| step   |  1.500E+00   1.679E+00* unnecessary unnecessary unnecessary  |<- line
| gain   |  2.484E+02   2.502E+02* unnecessary unnecessary unnecessary  |<- line
+--------+--------------------------------------------------------------+<- line
 * indicates the final, accepted state (should have the lowest energy)          
 
+------------------- WAVEFUNCTION LINE MINIMISATION --------------------+<- line
| Initial energy = -6.881681E+001 eV; initial dE/dstep = -1.344E+002 eV |<- line
|                                                                       |<- line
|            1st step    2nd step    3rd step    4th step    5th step   |<- line
+--------+--------------------------------------------------------------+<- line
| step   |  1.500E+00   1.155E+00* unnecessary unnecessary unnecessary  |<- line
| gain   |  7.065E+01   7.553E+01* unnecessary unnecessary unnecessary  |<- line
+--------+--------------------------------------------------------------+<- line
 * indicates the final, accepted state (should have the lowest energy)          
 
+------------------- WAVEFUNCTION LINE MINIMISATION --------------------+<- line
| Initial energy = -1.443457E+002 eV; initial dE/dstep = -7.152E+001 eV |<- line
|                                                                       |<- line
|            1st step    2nd step    3rd step    4th step    5th step   |<- line
+--------+--------------------------------------------------------------+<- line
| step   |  1.500E+00   9.480E-01* unnecessary unnecessary unnecessary  |<- line
| gain   |  2.240E+01   3.221E+01* unnecessary unnecessary unnecessary  |<- line
+--------+--------------------------------------------------------------+<- line
 * indicates the final, accepted state (should have the lowest energy)          
 
+------------------- WAVEFUNCTION LINE MINIMISATION --------------------+<- line
| Initial energy = -1.765515E+002 eV; initial dE/dstep = -3.737E+001 eV |<- line
|                                                                       |<- line
|            1st step    2nd step    3rd step    4th step    5th step   |<- line
+--------+--------------------------------------------------------------+<- line
| step   |  1.500E+00   8.641E-01* unnecessary unnecessary unnecessary  |<- line
| gain   |  7.401E+00   1.549E+01* unnecessary unnecessary unnecessary  |<- line
+--------+--------------------------------------------------------------+<- line
 * indicates the final, accepted state (should have the lowest energy)          
 
+------------------- WAVEFUNCTION LINE MINIMISATION --------------------+<- line
| Initial energy = -1.920386E+002 eV; initial dE/dstep = -2.063E+001 eV |<- line
|                                                                       |<- line
|            1st step    2nd step    3rd step    4th step    5th step   |<- line
+--------+--------------------------------------------------------------+<- line
| step   |  1.500E+00   7.725E-01* unnecessary unnecessary unnecessary  |<- line
| gain   |  9.014E-01   7.728E+00* unnecessary unnecessary unnecessary  |<- line
+--------+--------------------------------------------------------------+<- line
 * indicates the final, accepted state (should have the lowest energy)          
 
      1  -1.99766377E+002                    1.90550321E+002      23.59  <-- SCF
+------------------- WAVEFUNCTION LINE MINIMISATION --------------------+<- line
| Initial energy = -1.997664E+002 eV; initial dE/dstep = -3.781E+000 eV |<- line
|                                                                       |<- line
|            1st step    2nd step    3rd step    4th step    5th step   |<- line
+--------+--------------------------------------------------------------+<- line
| step   |  1.500E+00   4.553E+00* unnecessary unnecessary unnecessary  |<- line
| gain   |  4.737E+00   8.076E+00* unnecessary unnecessary unnecessary  |<- line
+--------+--------------------------------------------------------------+<- line
 * indicates the final, accepted state (should have the lowest energy)          
 
+------------------- WAVEFUNCTION LINE MINIMISATION --------------------+<- line
| Initial energy = -2.078427E+002 eV; initial dE/dstep = -1.716E+000 eV |<- line
|                                                                       |<- line
|            1st step    2nd step    3rd step    4th step    5th step   |<- line
+--------+--------------------------------------------------------------+<- line
| step   |  1.500E+00   4.986E+00* unnecessary unnecessary unnecessary  |<- line
| gain   |  2.187E+00   3.694E+00* unnecessary unnecessary unnecessary  |<- line
+--------+--------------------------------------------------------------+<- line
 * indicates the final, accepted state (should have the lowest energy)          
 
+------------------- WAVEFUNCTION LINE MINIMISATION --------------------+<- line
| Initial energy = -2.115368E+002 eV; initial dE/dstep = -1.142E+000 eV |<- line
|                                                                       |<- line
|            1st step    2nd step    3rd step    4th step    5th step   |<- line
+--------+--------------------------------------------------------------+<- line
| step   |  1.500E+00   3.207E+00* unnecessary unnecessary unnecessary  |<- line
| gain   |  1.312E+00   1.783E+00* unnecessary unnecessary unnecessary  |<- line
+--------+--------------------------------------------------------------+<- line
 * indicates the final, accepted state (should have the lowest energy)          
 
+------------------- WAVEFUNCTION LINE MINIMISATION --------------------+<- line
| Initial energy = -2.133201E+002 eV; initial dE/dstep = -5.169E-001 eV |<- line
|                                                                       |<- line
|            1st step    2nd step    3rd step    4th step    5th step   |<- line
+--------+--------------------------------------------------------------+<- line
| step   |  1.500E+00   2.907E+00* unnecessary unnecessary unnecessary  |<- line
| gain   |  5.753E-01   7.485E-01* unnecessary unnecessary unnecessary  |<- line
+--------+--------------------------------------------------------------+<- line
 * indicates the final, accepted state (should have the lowest energy)          
 
+------------------- WAVEFUNCTION LINE MINIMISATION --------------------+<- line
| Initial energy = -2.140685E+002 eV; initial dE/dstep = -1.924E-001 eV |<- line
|                                                                       |<- line
|            1st step    2nd step    3rd step    4th step    5th step   |<- line
+--------+--------------------------------------------------------------+<- line
| step   |  1.500E+00   3.015E+00* unnecessary unnecessary unnecessary  |<- line
| gain   |  2.168E-01   2.897E-01* unnecessary unnecessary unnecessary  |<- line
+--------+--------------------------------------------------------------+<- line
 * indicates the final, accepted state (should have the lowest energy)          
 
      2  -2.14358228E+002                    7.29592585E+000      42.63  <-- SCF
+------------------- WAVEFUNCTION LINE MINIMISATION --------------------+<- line
| Initial energy = -2.143582E+002 eV; initial dE/dstep = -6.511E-002 eV |<- line
|                                                                       |<- line
|            1st step    2nd step    3rd step    4th step    5th step   |<- line
+--------+--------------------------------------------------------------+<- line
| step   |  1.500E+00   3.803E+00* unnecessary unnecessary unnecessary  |<- line
| gain   |  7.840E-02   1.242E-01* unnecessary unnecessary unnecessary  |<- line
+--------+--------------------------------------------------------------+<- line
 * indicates the final, accepted state (should have the lowest energy)          
 
+------------------- WAVEFUNCTION LINE MINIMISATION --------------------+<- line
| Initial energy = -2.144824E+002 eV; initial dE/dstep = -2.552E-002 eV |<- line
[...]
  +          14       15.964329                                       +
  + ----------------------------------------------------------------- +
  +  Spin=1 kpt=   33 (  0.500000  0.000000  0.500000) kpt-group=  1  +
  + ----------------------------------------------------------------- +
  +                                                                   +
  +           1       -8.281289                                       +
  +           2       -8.265591                                       +
  +           3       -2.875321                                       +
  +           4       -2.789338                                       +
  +           5        2.328237                                       +
  +           6        2.366117                                       +
  +           7       12.286090                                       +
  +           8       12.294773                                       +
  +           9       13.366840                                       +
  +          10       13.371820                                       +
  +          11       15.083816                                       +
  +          12       15.088846                                       +
  +          13       15.198697                                       +
  +          14       15.220172                                       +
  + ----------------------------------------------------------------- +
  +  Spin=1 kpt=   34 (  0.500000  0.041667  0.541667) kpt-group=  1  +
  + ----------------------------------------------------------------- +
  +                                                                   +
  +           1       -8.269882                                       +
  +           2       -8.254306                                       +
  +           3       -2.947645                                       +
  +           4       -2.883637                                       +
  +           5        2.506545                                       +
  +           6        2.523451                                       +
  +           7       11.981682                                       +
  +           8       11.988298                                       +
  +           9       13.065166                                       +
  +          10       13.071925                                       +
  +          11       15.158817                                       +
  +          12       15.170220                                       +
  +          13       15.774152                                       +
  +          14       15.787168                                       +
  + ----------------------------------------------------------------- +
  +  Spin=1 kpt=   35 (  0.500000  0.083333  0.583333) kpt-group=  1  +
  + ----------------------------------------------------------------- +
  +                                                                   +
  +           1       -8.238387                                       +
  +           2       -8.222999                                       +
  +           3       -3.137450                                       +
  +           4       -3.113141                                       +
  +           5        2.962355                                       +
  +           6        2.986762                                       +
  +           7       11.072298                                       +
  +           8       11.075620                                       +
  +           9       12.887190                                       +
  +          10       12.893842                                       +
  +          11       15.218684                                       +
  +          12       15.229800                                       +
  +          13       16.911237                                       +
  +          14       16.921642                                       +
  + ----------------------------------------------------------------- +
  +  Spin=1 kpt=   36 (  0.500000  0.125000  0.625000) kpt-group=  1  +
  + ----------------------------------------------------------------- +
  +                                                                   +
  +           1       -8.196697                                       +
  +           2       -8.181464                                       +
  +           3       -3.390506                                       +
  +           4       -3.383009                                       +
  +           5        3.629201                                       +
  +           6        3.669463                                       +
  +           7        9.944886                                       +
  +           8        9.947270                                       +
  +           9       12.848073                                       +
  +          10       12.854291                                       +
  +          11       15.269286                                       +
  +          12       15.279018                                       +
  +          13       18.095890                                       +
  +          14       18.105329                                       +
  + ----------------------------------------------------------------- +
  +  Spin=1 kpt=   37 (  0.500000  0.166667  0.666667) kpt-group=  1  +
  + ----------------------------------------------------------------- +
  +                                                                   +
  +           1       -8.151711                                       +
  +           2       -8.136937                                       +
  +           3       -3.629038                                       +
  +           4       -3.620576                                       +
  +           5        4.459096                                       +
  +           6        4.497379                                       +
  +           7        8.796058                                       +
  +           8        8.797286                                       +
  +           9       12.844641                                       +
  +          10       12.850577                                       +
  +          11       15.338133                                       +
  +          12       15.346477                                       +
  +          13       19.029037                                       +
  +          14       19.037768                                       +
  + ----------------------------------------------------------------- +
  +  Spin=1 kpt=   38 (  0.500000  0.208333  0.708333) kpt-group=  1  +
  + ----------------------------------------------------------------- +
  +                                                                   +
  +           1       -8.117997                                       +
  +           2       -8.104077                                       +
  +           3       -3.793700                                       +
  +           4       -3.782254                                       +
  +           5        5.368956                                       +
  +           6        5.402216                                       +
  +           7        7.691565                                       +
  +           8        7.694989                                       +
  +           9       12.846894                                       +
  +          10       12.852904                                       +
  +          11       15.386239                                       +
  +          12       15.393873                                       +
  +          13       19.078494                                       +
  +          14       19.088753                                       +
  + ----------------------------------------------------------------- +
  +  Spin=1 kpt=   39 (  0.500000  0.250000  0.750000) kpt-group=  1  +
  + ----------------------------------------------------------------- +
  +                                                                   +
  +           1       -8.103012                                       +
  +           2       -8.089908                                       +
  +           3       -3.850545                                       +
  +           4       -3.839657                                       +
  +           5        6.056072                                       +
  +           6        6.077134                                       +
  +           7        6.943887                                       +
  +           8        6.957029                                       +
  +           9       12.848165                                       +
  +          10       12.854764                                       +
  +          11       15.411196                                       +
  +          12       15.419173                                       +
  +          13       19.014952                                       +
  +          14       19.025579                                       +
  + ----------------------------------------------------------------- +
  +  Spin=1 kpt=   40 (  0.475000  0.275000  0.750000) kpt-group=  1  +
  + ----------------------------------------------------------------- +
  +                                                                   +
  +           1       -8.328739                                       +
  +           2       -7.880201                                       +
  +           3       -4.017935                                       +
  +           4       -3.593441                                       +
  +           5        5.353096                                       +
  +           6        6.134148                                       +
  +           7        7.305779                                       +
  +           8        7.336166                                       +
  +           9       12.349509                                       +
  +          10       13.127963                                       +
  +          11       15.091033                                       +
  +          12       15.918864                                       +
  +          13       18.599984                                       +
  +          14       19.339829                                       +
  + ----------------------------------------------------------------- +
  +  Spin=1 kpt=   41 (  0.450000  0.300000  0.750000) kpt-group=  1  +
  + ----------------------------------------------------------------- +
  +                                                                   +
  +           1       -8.506820                                       +
  +           2       -7.743414                                       +
  +           3       -4.155955                                       +
  +           4       -3.238559                                       +
  +           5        4.446859                                       +
  +           6        6.080657                                       +
  +           7        7.855313                                       +
  +           8        8.043981                                       +
  +           9       11.776648                                       +
  +          10       12.856139                                       +
  +          11       15.271107                                       +
  +          12       16.475126                                       +
  +          13       18.269665                                       +
  +          14       19.263791                                       +
  + ----------------------------------------------------------------- +
  +  Spin=1 kpt=   42 (  0.425000  0.325000  0.750000) kpt-group=  1  +
  + ----------------------------------------------------------------- +
  +                                                                   +
  +           1       -8.634172                                       +
  +           2       -7.665752                                       +
  +           3       -4.255766                                       +
  +           4       -2.848407                                       +
  +           5        3.661959                                       +
  +           6        6.012268                                       +
  +           7        8.476952                                       +
  +           8        8.826609                                       +
  +           9       11.164151                                       +
  +          10       12.183220                                       +
  +          11       15.835734                                       +
  +          12       17.054591                                       +
  +          13       18.031681                                       +
  +          14       18.964958                                       +
  + ----------------------------------------------------------------- +
  +  Spin=1 kpt=   43 (  0.400000  0.350000  0.750000) kpt-group=  1  +
  + ----------------------------------------------------------------- +
  +                                                                   +
  +           1       -8.707682                                       +
  +           2       -7.626137                                       +
  +           3       -4.315198                                       +
  +           4       -2.535063                                       +
  +           5        3.116203                                       +
  +           6        5.967384                                       +
  +           7        9.110074                                       +
  +           8        9.644464                                       +
  +           9       10.538080                                       +
  +          10       11.382635                                       +
  +          11       16.509512                                       +
  +          12       17.630005                                       +
  +          13       17.843919                                       +
  +          14       18.613071                                       +
  + ----------------------------------------------------------------- +
  +  Spin=1 kpt=   44 (  0.375000  0.375000  0.750000) kpt-group=  1  +
  + ----------------------------------------------------------------- +
  +                                                                   +
  +           1       -8.731625                                       +
  +           2       -7.614279                                       +
  +           3       -4.334979                                       +
  +           4       -2.411292                                       +
  +           5        2.921279                                       +
  +           6        5.951743                                       +
  +           7        9.567400                                       +
  +           8       10.085066                                       +
  +           9       10.324260                                       +
  +          10       10.707025                                       +
  +          11       16.960990                                       +
  +          12       17.672510                                       +
  +          13       18.095348                                       +
  +          14       18.244266                                       +
  =====================================================================

Writing model to Si2.orbitals
Initialising basis set.

Standard grid dimensions:  16  16  16
Fine grid dimensions:      16  16  16

Plane wave load balancing: max    265 min    243 average    252
True cut-off energy of basis :   7.332
 Reassigning basis set.
True cut-off energy of basis :   7.332

 ******************** Ewald forces ********************
 *                                                    *
 *            Cartesian components (eV/A)             *
 * -------------------------------------------------- *
 *                   x            y            z      *
 *                                                    *
 * Si        1      0.00000      0.00000      0.00000 *
 * Si        2     -0.00000     -0.00000     -0.00000 *
 *                                                    *
 ******************************************************

 *************** Local potential forces ***************
 *                                                    *
 *            Cartesian components (eV/A)             *
 * -------------------------------------------------- *
 *                   x            y            z      *
 *                                                    *
 * Si        1      0.09051     -0.02409     -0.13344 *
 * Si        2     -0.09062      0.02408      0.13357 *
 *                                                    *
 ******************************************************

 ************* Non-local potential forces *************
 *                                                    *
 *            Cartesian components (eV/A)             *
 * -------------------------------------------------- *
 *                   x            y            z      *
 *                                                    *
 * Si        1      0.11197     -0.09609     -0.02394 *
 * Si        2     -0.11195      0.09607      0.02394 *
 *                                                    *
 ******************************************************

 *********** External Efield and/or dipole ************
 *                                                    *
 *            Cartesian components (eV/A)             *
 * -------------------------------------------------- *
 *                   x            y            z      *
 *                                                    *
 * Si        1      0.00000      0.00000      0.00000 *
 * Si        2      0.00000      0.00000      0.00000 *
 *                                                    *
 ******************************************************

 ***************** Symmetrised Forces *****************
 *                                                    *
 *            Cartesian components (eV/A)             *
 * -------------------------------------------------- *
 *                   x            y            z      *
 *                                                    *
 * Si        1      0.00000      0.00000      0.00000 *
 * Si        2      0.00000      0.00000      0.00000 *
 *                                                    *
 ******************************************************

 Pseudo atomic calculation performed for Si 3s2 3p2

 Converged in 16 iterations to a total energy of -101.8630 eV

Charge spilling parameter for spin component 1 = 1.09%
The total projected population is    8.000  -0.000

     Atomic Populations (Mulliken)
     -----------------------------
Species   Ion     s      p      d      f     Total  Charge (e)
==============================================================
  Si       1     1.34   2.66   0.00   0.00   4.00     0.00
  Si       2     1.34   2.66   0.00   0.00   4.00     0.00
==============================================================

            Bond              Population      Length (A)
============================================================
         Si 1 -- Si 2              3.04        2.33434
============================================================


Writing analysis data to Si2.castep_bin

Writing model to Si2.check
 
 A BibTeX formatted list of references used in this run has been written to 
 Si2.bib
 
Initialisation time =      0.89 s
Calculation time    =   1054.90 s
Finalisation time   =      0.03 s
Total time          =   1055.82 s
