 +-------------------------------------------------+
 |                                                 |
 |      CCC   AA    SSS  TTTTT  EEEEE  PPPP        |
 |     C     A  A  S       T    E      P   P       |
 |     C     AAAA   SS     T    EEE    PPPP        |
 |     C     A  A     S    T    E      P           |
 |      CCC  A  A  SSS     T    EEEEE  P           |
 |                                                 |
 +-------------------------------------------------+
 |                                                 |
 | Welcome to Academic Release CASTEP version 16.1 |          
 | Ab Initio Total Energy Program                  |
 |                                                 |
 | Authors:                                        |
 | M. Segall, M. Probert, C. Pickard, P. Hasnip,   |
 | S. Clark, K. Refson, J. R. Yates, M. Payne      |
 |                                                 |
 | Contributors:                                   |
 | P. Lindan, P. Haynes, J. White, V. Milman,      |
 | N. Govind, M. Gibson, P. Tulip, V. Cocula,      |
 | B. Montanari, D. Quigley, M. Glover,            |
 | L. Bernasconi, A. Perlov, M. Plummer,           |
 | E. McNellis, J. Meyer, J. Gale, D. Jochym       |
 | J. Aarons, B. Walker, R. Gillen, D. Jones       |
 | T. Green, I. J. Bush, C. J. Armstrong,          |
 | E. J. Higgins, E. L. Brown, M. S. McFly         |
 |                                                 |
 | Copyright (c) 2000 - 2015                       |
 |                                                 |
 |     Distributed under the terms of an           |
 |     Agreement between the United Kingdom        |
 |     Car-Parrinello (UKCP) Consortium,           |
 |     Daresbury Laboratory and Accelrys, Inc.     |
 |                                                 |
 | Please cite                                     |
 |                                                 |
 |     "First principles methods using CASTEP"     |
 |                                                 |
 |         Zeitschrift fuer Kristallographie       |
 |           220(5-6) pp. 567-570 (2005)           |
 |                                                 |
 | S. J. Clark, M. D. Segall, C. J. Pickard,       |
 | P. J. Hasnip, M. J. Probert, K. Refson,         |
 | M. C. Payne                                     |
 |                                                 |
 |       in all publications arising from          |
 |              your use of CASTEP                 |
 |                                                 |
 +-------------------------------------------------+


 Compiled for darwin_x86_64_gfortran5.0 on Fri, 19 Feb 2016 13:44:46 +0000
 from code version Version unavailable
 Compiler: GNU Fortran 5.3.0; Optimisation: intermediate
 MATHLIBS: default (LAPACK version 3.2.1)
 FFT Lib : default
 Fundamental constants values: CODATA 2010

 Run started: Fri, 19 Feb 2016 16:55:16 +0000
 Info: number of up-spin electrons is equal to the
       number of down-spins and spin_polarized=true
     - consider setting spin_polarized=false.

 Pseudo atomic calculation performed for Si 3s2 3p2

 Converged in 16 iterations to a total energy of -101.8630 eV

 Calculation not parallelised.

 ************************************ Title ************************************
 

 ***************************** General Parameters ******************************
  
 output verbosity                               : normal  (1)
 write checkpoint data to                       : Si2.check
 type of calculation                            : band structure
 stress calculation                             : off
 density difference calculation                 : on
 electron localisation func (ELF) calculation   : off
 Hirshfeld analysis                             : off
 unlimited duration calculation
 timing information                             : on
 memory usage estimate                          : on
 write final potential to formatted file        : off
 write final density to formatted file          : on
 write BibTeX reference list                    : on
 write OTFG pseudopotential files               : on
 checkpoint writing                             : both castep_bin and check files
  
 output         length unit                     : A
 output           mass unit                     : amu
 output           time unit                     : ps
 output         charge unit                     : e
 output           spin unit                     : hbar/2
 output         energy unit                     : eV
 output          force unit                     : eV/A
 output       velocity unit                     : A/ps
 output       pressure unit                     : GPa
 output     inv_length unit                     : 1/A
 output      frequency unit                     : cm-1
 output force constant unit                     : eV/A**2
 output         volume unit                     : A**3
 output   IR intensity unit                     : (D/A)**2/amu
 output         dipole unit                     : D
 output         efield unit                     : eV/A/e
 output        entropy unit                     : J/mol/K
  
 wavefunctions paging                           : none
 random number generator seed                   : randomised (165516296)
 data distribution                              : optimal for this architecture
 optimization strategy                          : maximize speed(+++)

 *********************** Exchange-Correlation Parameters ***********************
  
 using functional                               : hybrid B3LYP
 relativistic treatment                         : Koelling-Harmon
 DFT+D: Semi-empirical dispersion correction    : off

 ************************* Pseudopotential Parameters **************************
  
 pseudopotential representation                 : reciprocal space
 <beta|phi> representation                      : reciprocal space
 spin-orbit coupling                            : off

 **************************** Basis Set Parameters *****************************
  
 basis set accuracy                             : MEDIUM
 plane wave basis set cut-off                   :   200.0000   eV
 size of standard grid                          :     1.7500
 size of   fine   gmax                          :    12.6792   1/A
 finite basis set correction                    : none

 **************************** Electronic Parameters ****************************
  
 number of  electrons                           :  8.000    
 net charge of system                           :  0.000    
 net spin   of system                           :  0.000    
 number of  up  spins                           :  4.000    
 number of down spins                           :  4.000    
 treating system as spin-polarized
 number of bands                                :          4

 ********************* Electronic Minimization Parameters **********************
  
 Method: Treating system as non-metallic,
         and number of  SD  steps               :          1
         and number of  CG  steps               :          4
  
 total energy / atom convergence tol.           : 0.1000E-04   eV
 max force / atom convergence tol.              : ignored
 convergence tolerance window                   :          3   cycles
 max. number of SCF cycles                      :         30
 periodic dipole correction                     : NONE

 *********************** Population Analysis Parameters ************************
  
 Population analysis with cutoff                :  3.000       A

 ************************** Band Structure Parameters **************************
  
 max. number of iterations                      :         60
 max. CG steps in BS calc                       :         25
 number of bands / k-point                      :         14
 band convergence tolerance                     : 0.1000E-05   eV
 write orbitals file                            : on

 *******************************************************************************
  

                           -------------------------------
                                      Unit Cell
                           -------------------------------
        Real Lattice(A)                      Reciprocal Lattice(1/A)
   2.6954645   2.6954645   0.0000000        1.1655107   1.1655107  -1.1655107
   2.6954645   0.0000000   2.6954645        1.1655107  -1.1655107   1.1655107
   0.0000000   2.6954645   2.6954645       -1.1655107   1.1655107   1.1655107

                       Lattice parameters(A)       Cell Angles
                    a =    3.811962          alpha =   60.000000
                    b =    3.811962          beta  =   60.000000
                    c =    3.811962          gamma =   60.000000

                       Current cell volume =   39.167950       A**3

                           -------------------------------
                                     Cell Contents
                           -------------------------------
                         Total number of ions in cell =    2
                      Total number of species in cell =    1
                        Max number of any one species =    2

            xxxxxxxxxxxxxxxxxxxxxxxxxxxxxxxxxxxxxxxxxxxxxxxxxxxxxxxxxxxx
            x  Element    Atom        Fractional coordinates of atoms  x
            x            Number           u          v          w      x
            x----------------------------------------------------------x
            x  Si           1         0.000000   0.000000   0.000000   x 
            x  Si           2         0.250000   0.250000   0.250000   x 
            xxxxxxxxxxxxxxxxxxxxxxxxxxxxxxxxxxxxxxxxxxxxxxxxxxxxxxxxxxxx


                         No user defined ionic velocities

                           -------------------------------
                                   Details of Species
                           -------------------------------

                               Mass of species in AMU
                                    Si   28.0855000

                          Electric Quadrupole Moment (Barn)
                                    Si    1.0000000 No Isotope Defined

                          Files used for pseudopotentials:
                                    Si Si_00.recpot

                           -------------------------------
                              k-Points For BZ Sampling
                           -------------------------------
                       MP grid size for SCF calculation is  4  4  4
                            with an offset of   0.000  0.000  0.000
                       Number of kpoints used =            10

                           -------------------------------
                               Symmetry and Constraints
                           -------------------------------

                      Maximum deviation from symmetry =  0.00000         ANG

                      Number of symmetry operations   =          48
                      Number of ionic constraints     =           3
                      Point group of crystal =    32: Oh, m-3m, 4/m -3 2/m
                      Space group of crystal =   227: Fd-3m, F 4d 2 3 -1d

             Set iprint > 1 for details on symmetry rotations/translations

                         Centre of mass is constrained
             Set iprint > 1 for details of linear ionic constraints

                         Number of cell constraints= 5
                         Cell constraints are:  1 1 1 0 0 0

                         External pressure/stress (GPa)
                          0.00000   0.00000   0.00000
                                    0.00000   0.00000
                                              0.00000
  
+---------------- MEMORY AND SCRATCH DISK ESTIMATES PER PROCESS --------------+
|                                                     Memory          Disk    |
| Baseline code, static data and system overhead        0.0 MB         0.0 MB |
| BLAS internal memory storage                          0.0 MB         0.0 MB |
| Model and support data                                3.3 MB         0.0 MB |
| Non-local exact exchange data                        87.1 MB         0.0 MB |
| Electronic energy minimisation requirements           2.2 MB         0.0 MB |
| Force calculation requirements                        0.7 MB         0.0 MB |
|                                               ----------------------------- |
| Approx. total storage required per process           89.3 MB         0.0 MB |
|                                                                             |
| Requirements will fluctuate during execution and may exceed these estimates |
+-----------------------------------------------------------------------------+
------------------------------------------------------------------------ <-- SCF
SCF loop      Energy                           Energy gain       Timer   <-- SCF
                                               per atom          (sec)   <-- SCF
------------------------------------------------------------------------ <-- SCF
Initial   1.82189918E+002                                          8.76  <-- SCF
      1  -1.99471910E+002                    1.90830914E+002      46.73  <-- SCF
      2  -2.14440916E+002                    7.48450283E+000      84.64  <-- SCF
      3  -2.14539543E+002                    4.93135287E-002     122.58  <-- SCF
      4  -2.14539795E+002                    1.26169778E-004     162.56  <-- SCF
      5  -2.14539797E+002                    9.26734393E-007     206.57  <-- SCF
      6  -2.14539797E+002                    0.00000000E+000     264.83  <-- SCF
------------------------------------------------------------------------ <-- SCF
 
Integrated Spin Density     =    0.197758E-15 hbar/2                        
Integrated |Spin Density|   =    0.391806E-03 hbar/2                        
 
Final energy =  -214.5397969107     eV
(energy not corrected for finite basis set)
 

Writing analysis data to Si2.castep_bin

Writing model to Si2.check
  
+---------------- MEMORY AND SCRATCH DISK ESTIMATES PER PROCESS --------------+
|                                                     Memory          Disk    |
| Baseline code, static data and system overhead        0.0 MB         0.0 MB |
| BLAS internal memory storage                          0.0 MB         0.0 MB |
| Model and support data                                5.7 MB         0.0 MB |
| Non-local exact exchange data                       140.0 MB         0.0 MB |
| Band structure calculation requirements              16.2 MB         0.0 MB |
| Force calculation requirements                        0.7 MB         0.0 MB |
|                                               ----------------------------- |
| Approx. total storage required per process          156.2 MB         0.0 MB |
|                                                                             |
| Requirements will fluctuate during execution and may exceed these estimates |
+-----------------------------------------------------------------------------+
  =====================================================================
  +  Fermi energy for spin  up  electrons is:    -0.10249 eV          +
  +  Fermi energy for spin down electrons is:    -0.10249 eV          +
  +                                                                   +
  +       B A N D   S T R U C T U R E   C A L C U L A T I O N         +
  +      (General k-point calculation - complex wavefunctions)        +
  +                                                                   +
  + ================================================================= +
  +                                                                   +
  +     Band Structure Calculation: Progress report on root process   +
  +                                                                   +
  +   There are   44 BS k-points. Root process contains   44 of them. +
  +                                                                   +
  +   Spin= 1 of  2, K-point=   1 of   44 completed, Time:    19.63s. +
  +   Spin= 1 of  2, K-point=   2 of   44 completed, Time:    20.15s. +
  +   Spin= 1 of  2, K-point=   3 of   44 completed, Time:    21.99s. +
  +   Spin= 1 of  2, K-point=   4 of   44 completed, Time:    20.56s. +
  +   Spin= 1 of  2, K-point=   5 of   44 completed, Time:    20.86s. +
  +   Spin= 1 of  2, K-point=   6 of   44 completed, Time:    20.80s. +
  +   Spin= 1 of  2, K-point=   7 of   44 completed, Time:    19.83s. +
  +   Spin= 1 of  2, K-point=   8 of   44 completed, Time:    20.62s. +
  +   Spin= 1 of  2, K-point=   9 of   44 completed, Time:    19.50s. +
  +   Spin= 1 of  2, K-point=  10 of   44 completed, Time:    19.41s. +
  +   Spin= 1 of  2, K-point=  11 of   44 completed, Time:    19.69s. +
  +   Spin= 1 of  2, K-point=  12 of   44 completed, Time:    19.83s. +
  +   Spin= 1 of  2, K-point=  13 of   44 completed, Time:    20.50s. +
  +   Spin= 1 of  2, K-point=  14 of   44 completed, Time:    20.81s. +
  +   Spin= 1 of  2, K-point=  15 of   44 completed, Time:    18.98s. +
  +   Spin= 1 of  2, K-point=  16 of   44 completed, Time:    18.82s. +
  +   Spin= 1 of  2, K-point=  17 of   44 completed, Time:    19.05s. +
  +   Spin= 1 of  2, K-point=  18 of   44 completed, Time:    18.36s. +
  +   Spin= 1 of  2, K-point=  19 of   44 completed, Time:    19.10s. +
  +   Spin= 1 of  2, K-point=  20 of   44 completed, Time:    20.18s. +
  +   Spin= 1 of  2, K-point=  21 of   44 completed, Time:    18.61s. +
  +   Spin= 1 of  2, K-point=  22 of   44 completed, Time:    19.39s. +
  +   Spin= 1 of  2, K-point=  23 of   44 completed, Time:    19.53s. +
  +   Spin= 1 of  2, K-point=  24 of   44 completed, Time:    19.22s. +
  +   Spin= 1 of  2, K-point=  25 of   44 completed, Time:    19.11s. +
  +   Spin= 1 of  2, K-point=  26 of   44 completed, Time:    19.45s. +
  +   Spin= 1 of  2, K-point=  27 of   44 completed, Time:    19.62s. +
  +   Spin= 1 of  2, K-point=  28 of   44 completed, Time:    20.06s. +
  +   Spin= 1 of  2, K-point=  29 of   44 completed, Time:    20.88s. +
  +   Spin= 1 of  2, K-point=  30 of   44 completed, Time:    21.17s. +
  +   Spin= 1 of  2, K-point=  31 of   44 completed, Time:    20.16s. +
  +   Spin= 1 of  2, K-point=  32 of   44 completed, Time:    20.91s. +
  +   Spin= 1 of  2, K-point=  33 of   44 completed, Time:    19.62s. +
  +   Spin= 1 of  2, K-point=  34 of   44 completed, Time:    19.95s. +
  +   Spin= 1 of  2, K-point=  35 of   44 completed, Time:    20.06s. +
  +   Spin= 1 of  2, K-point=  36 of   44 completed, Time:    19.75s. +
  +   Spin= 1 of  2, K-point=  37 of   44 completed, Time:    19.21s. +
  +   Spin= 1 of  2, K-point=  38 of   44 completed, Time:    21.12s. +
  +   Spin= 1 of  2, K-point=  39 of   44 completed, Time:    20.00s. +
  +   Spin= 1 of  2, K-point=  40 of   44 completed, Time:    20.20s. +
  +   Spin= 1 of  2, K-point=  41 of   44 completed, Time:    22.17s. +
  +   Spin= 1 of  2, K-point=  42 of   44 completed, Time:    21.88s. +
  +   Spin= 1 of  2, K-point=  43 of   44 completed, Time:    22.31s. +
  +   Spin= 1 of  2, K-point=  44 of   44 completed, Time:    23.27s. +
  +   Spin= 2 of  2, K-point=   1 of   44 completed, Time:    21.76s. +
  +   Spin= 2 of  2, K-point=   2 of   44 completed, Time:    20.20s. +
  +   Spin= 2 of  2, K-point=   3 of   44 completed, Time:    20.83s. +
  +   Spin= 2 of  2, K-point=   4 of   44 completed, Time:    21.05s. +
  +   Spin= 2 of  2, K-point=   5 of   44 completed, Time:    21.46s. +
  +   Spin= 2 of  2, K-point=   6 of   44 completed, Time:    20.93s. +
  +   Spin= 2 of  2, K-point=   7 of   44 completed, Time:    19.64s. +
  +   Spin= 2 of  2, K-point=   8 of   44 completed, Time:    19.45s. +
  +   Spin= 2 of  2, K-point=   9 of   44 completed, Time:    19.87s. +
  +   Spin= 2 of  2, K-point=  10 of   44 completed, Time:    19.15s. +
  +   Spin= 2 of  2, K-point=  11 of   44 completed, Time:    19.64s. +
  +   Spin= 2 of  2, K-point=  12 of   44 completed, Time:    19.61s. +
  +   Spin= 2 of  2, K-point=  13 of   44 completed, Time:    19.80s. +
  +   Spin= 2 of  2, K-point=  14 of   44 completed, Time:    20.22s. +
  +   Spin= 2 of  2, K-point=  15 of   44 completed, Time:    19.33s. +
  +   Spin= 2 of  2, K-point=  16 of   44 completed, Time:    20.69s. +
  +   Spin= 2 of  2, K-point=  17 of   44 completed, Time:    19.10s. +
  +   Spin= 2 of  2, K-point=  18 of   44 completed, Time:    19.34s. +
  +   Spin= 2 of  2, K-point=  19 of   44 completed, Time:    19.93s. +
  +   Spin= 2 of  2, K-point=  20 of   44 completed, Time:    18.53s. +
  +   Spin= 2 of  2, K-point=  21 of   44 completed, Time:    18.77s. +
  +   Spin= 2 of  2, K-point=  22 of   44 completed, Time:    19.75s. +
  +   Spin= 2 of  2, K-point=  23 of   44 completed, Time:    19.70s. +
  +   Spin= 2 of  2, K-point=  24 of   44 completed, Time:    19.44s. +
  +   Spin= 2 of  2, K-point=  25 of   44 completed, Time:    18.76s. +
  +   Spin= 2 of  2, K-point=  26 of   44 completed, Time:    19.52s. +
  +   Spin= 2 of  2, K-point=  27 of   44 completed, Time:    19.52s. +
  +   Spin= 2 of  2, K-point=  28 of   44 completed, Time:    21.04s. +
  +   Spin= 2 of  2, K-point=  29 of   44 completed, Time:    20.19s. +
  +   Spin= 2 of  2, K-point=  30 of   44 completed, Time:    19.97s. +
  +   Spin= 2 of  2, K-point=  31 of   44 completed, Time:    19.62s. +
  +   Spin= 2 of  2, K-point=  32 of   44 completed, Time:    19.84s. +
  +   Spin= 2 of  2, K-point=  33 of   44 completed, Time:    19.56s. +
  +   Spin= 2 of  2, K-point=  34 of   44 completed, Time:    19.23s. +
  +   Spin= 2 of  2, K-point=  35 of   44 completed, Time:    19.44s. +
  +   Spin= 2 of  2, K-point=  36 of   44 completed, Time:    19.77s. +
  +   Spin= 2 of  2, K-point=  37 of   44 completed, Time:    20.65s. +
  +   Spin= 2 of  2, K-point=  38 of   44 completed, Time:    20.00s. +
  +   Spin= 2 of  2, K-point=  39 of   44 completed, Time:    19.50s. +
  +   Spin= 2 of  2, K-point=  40 of   44 completed, Time:    20.58s. +
  +   Spin= 2 of  2, K-point=  41 of   44 completed, Time:    20.72s. +
  +   Spin= 2 of  2, K-point=  42 of   44 completed, Time:    21.28s. +
  +   Spin= 2 of  2, K-point=  43 of   44 completed, Time:    22.15s. +
  +   Spin= 2 of  2, K-point=  44 of   44 completed, Time:    24.31s. +
  +   Finished BS calculation on root process (waiting for others).   +
  +                                                                   +
  + ================================================================= +
  +                       Electronic energies                         +
  +                       -------------------                         +
  +                                                                   +
  +   Band number   Energy in eV                                      +
  + ================================================================= +
  +                                                                   +
  + ----------------------------------------------------------------- +
  +  Spin=1 kpt=    1 (  0.500000  0.250000  0.750000) kpt-group=  1  +
  + ----------------------------------------------------------------- +
  +                                                                   +
  +           1       -8.103007                                       +
  +           2       -8.089899                                       +
  +           3       -3.850543                                       +
  +           4       -3.839656                                       +
  +           5        6.056072                                       +
  +           6        6.077140                                       +
  +           7        6.943891                                       +
  +           8        6.957024                                       +
  +           9       12.848165                                       +
  +          10       12.854769                                       +
  +          11       15.411193                                       +
  +          12       15.419176                                       +
  +          13       19.014953                                       +
  +          14       19.025576                                       +
  + ----------------------------------------------------------------- +
  +  Spin=1 kpt=    2 (  0.500000  0.277778  0.722222) kpt-group=  1  +
  + ----------------------------------------------------------------- +
  +                                                                   +
  +           1       -8.500215                                       +
  +           2       -7.708952                                       +
  +           3       -4.075170                                       +
  +           4       -3.512562                                       +
  +           5        5.700689                                       +
  +           6        6.093672                                       +
  +           7        6.950280                                       +
  +           8        7.398521                                       +
  +           9       11.955643                                       +
  +          10       13.355385                                       +
  +          11       14.847226                                       +
  +          12       16.278999                                       +
  +          13       18.187521                                       +
  +          14       19.573716                                       +
  + ----------------------------------------------------------------- +
  +  Spin=1 kpt=    3 (  0.500000  0.305556  0.694444) kpt-group=  1  +
  + ----------------------------------------------------------------- +
  +                                                                   +
  +           1       -8.884746                                       +
  +           2       -7.393384                                       +
  +           3       -4.150653                                       +
  +           4       -3.111266                                       +
  +           5        5.354968                                       +
  +           6        5.732904                                       +
  +           7        7.445444                                       +
  +           8        7.957239                                       +
  +           9       10.822209                                       +
  +          10       13.526611                                       +
  +          11       14.501824                                       +
  +          12       16.697672                                       +
  +          13       17.863093                                       +
  +          14       19.845819                                       +
  + ----------------------------------------------------------------- +
  +  Spin=1 kpt=    4 (  0.500000  0.333333  0.666667) kpt-group=  1  +
  + ----------------------------------------------------------------- +
  +                                                                   +
  +           1       -9.236277                                       +
  +           2       -7.189308                                       +
  +           3       -4.010691                                       +
  +           4       -2.679915                                       +
  +           5        5.089000                                       +
  +           6        5.351879                                       +
  +           7        8.080671                                       +
  +           8        8.559391                                       +
  +           9        9.618735                                       +
  +          10       13.445019                                       +
  +          11       14.260181                                       +
  +          12       15.844724                                       +
  +          13       18.735696                                       +
  +          14       19.383636                                       +
  + ----------------------------------------------------------------- +
  +  Spin=1 kpt=    5 (  0.500000  0.361111  0.638889) kpt-group=  1  +
  + ----------------------------------------------------------------- +
  +                                                                   +
  +           1       -9.542799                                       +
  +           2       -7.116859                                       +
  +           3       -3.650186                                       +
  +           4       -2.256330                                       +
  +           5        4.913889                                       +
  +           6        4.988223                                       +
  +           7        8.430512                                       +
  +           8        8.794255                                       +
  +           9        9.180241                                       +
  +          10       13.140841                                       +
  +          11       14.059635                                       +
  +          12       15.043600                                       +
  +          13       18.299821                                       +
  +          14       18.725491                                       +
  + ----------------------------------------------------------------- +
  +  Spin=1 kpt=    6 (  0.500000  0.388889  0.611111) kpt-group=  1  +
  + ----------------------------------------------------------------- +
  +                                                                   +
  +           1       -9.799501                                       +
  +           2       -7.135840                                       +
  +           3       -3.117260                                       +
  +           4       -1.874098                                       +
  +           5        4.646013                                       +
  +           6        4.852098                                       +
  +           7        7.315661                                       +
  +           8        9.570229                                       +
  +           9        9.770912                                       +
  +          10       12.634718                                       +
  +          11       13.896094                                       +
  +          12       14.532927                                       +
  +          13       17.534172                                       +
  +          14       17.620139                                       +
  + ----------------------------------------------------------------- +
  +  Spin=1 kpt=    7 (  0.500000  0.416667  0.583333) kpt-group=  1  +
  + ----------------------------------------------------------------- +
  +                                                                   +
  +           1      -10.001910                                       +
  +           2       -7.193912                                       +
  +           3       -2.484347                                       +
  +           4       -1.554968                                       +
  +           5        4.301690                                       +
  +           6        4.879596                                       +
  +           7        6.348946                                       +
  +           8       10.192669                                       +
  +           9       10.405529                                       +
  +          10       12.199620                                       +
  +          11       13.765943                                       +
  +          12       14.240989                                       +
  +          13       16.500082                                       +
  +          14       16.752284                                       +
  + ----------------------------------------------------------------- +
  +  Spin=1 kpt=    8 (  0.500000  0.444444  0.555556) kpt-group=  1  +
  + ----------------------------------------------------------------- +
  +                                                                   +
  +           1      -10.151057                                       +
  +           2       -7.254694                                       +
  +           3       -1.838701                                       +
  +           4       -1.318309                                       +
  +           5        3.890794                                       +
  +           6        4.973250                                       +
  +           7        5.642744                                       +
  +           8       10.203242                                       +
  +           9       11.292395                                       +
  +          10       12.237203                                       +
  +          11       13.670362                                       +
  +          12       14.035157                                       +
  +          13       15.396788                                       +
  +          14       16.013935                                       +
  + ----------------------------------------------------------------- +
  +  Spin=1 kpt=    9 (  0.500000  0.472222  0.527778) kpt-group=  1  +
  + ----------------------------------------------------------------- +
  +                                                                   +
  +           1      -10.239247                                       +
  +           2       -7.297625                                       +
  +           3       -1.313076                                       +
  +           4       -1.174593                                       +
  +           5        3.468110                                       +
  +           6        5.083572                                       +
  +           7        5.264217                                       +
  +           8        9.967480                                       +
  +           9       12.221695                                       +
  +          10       12.663990                                       +
  +          11       13.609757                                       +
  +          12       13.831769                                       +
  +          13       14.338593                                       +
  +          14       15.432812                                       +
  + ----------------------------------------------------------------- +
  +  Spin=1 kpt=   10 (  0.500000  0.500000  0.500000) kpt-group=  1  +
  + ----------------------------------------------------------------- +
  +                                                                   +
  +           1      -10.267290                                       +
  +           2       -7.310651                                       +
  +           3       -1.124764                                       +
  +           4       -1.098170                                       +
  +           5        3.278517                                       +
  +           6        5.141010                                       +
  +           7        5.167113                                       +
  +           8        9.849969                                       +
  +           9       12.982546                                       +
  +          10       12.988302                                       +
  +          11       13.491843                                       +
  +          12       13.660828                                       +
  +          13       13.674230                                       +
  +          14       15.202261                                       +
  + ----------------------------------------------------------------- +
  +  Spin=1 kpt=   11 (  0.454545  0.454545  0.454545) kpt-group=  1  +
  + ----------------------------------------------------------------- +
  +                                                                   +
  +           1      -10.390857                                       +
  +           2       -7.133081                                       +
  +           3       -1.111805                                       +
  +           4       -1.085165                                       +
  +           5        3.294172                                       +
  +           6        5.147585                                       +
  +           7        5.173542                                       +
  +           8        9.874492                                       +
  +           9       12.275485                                       +
  +          10       12.283877                                       +
  +          11       13.088907                                       +
  +          12       14.414477                                       +
  +          13       14.425231                                       +
  +          14       15.557099                                       +
  + ----------------------------------------------------------------- +
  +  Spin=1 kpt=   12 (  0.409091  0.409091  0.409091) kpt-group=  1  +
  + ----------------------------------------------------------------- +
  +                                                                   +
  +           1      -10.689294                                       +
  +           2       -6.663017                                       +
  +           3       -1.062263                                       +
  +           4       -1.035559                                       +
  +           5        3.348571                                       +
  +           6        5.193198                                       +
  +           7        5.218574                                       +
  +           8        9.939990                                       +
  +           9       11.403329                                       +
  +          10       11.412245                                       +
  +          11       12.357552                                       +
  +          12       15.486423                                       +
  +          13       15.496511                                       +
  +          14       16.118083                                       +
  + ----------------------------------------------------------------- +
  +  Spin=1 kpt=   13 (  0.363636  0.363636  0.363636) kpt-group=  1  +
  + ----------------------------------------------------------------- +
  +                                                                   +
  +           1      -11.059271                                       +
  +           2       -6.012206                                       +
  +           3       -0.980429                                       +
  +           4       -0.953566                                       +
  +           5        3.433923                                       +
  +           6        5.252477                                       +
  +           7        5.276736                                       +
  +           8        9.988812                                       +
  +           9       10.616785                                       +
  +          10       10.625639                                       +
  +          11       11.618481                                       +
  +          12       16.226678                                       +
  +          13       16.563997                                       +
  +          14       16.573484                                       +
  + ----------------------------------------------------------------- +
  +  Spin=1 kpt=   14 (  0.318182  0.318182  0.318182) kpt-group=  1  +
  + ----------------------------------------------------------------- +
  +                                                                   +
  +           1      -11.432624                                       +
  +           2       -5.243960                                       +
  +           3       -0.861730                                       +
  +           4       -0.834594                                       +
  +           5        3.550420                                       +
  +           6        5.297019                                       +
  +           7        5.319378                                       +
  +           8        9.827881                                       +
  +           9        9.966499                                       +
  +          10        9.974588                                       +
  +          11       11.131431                                       +
  +          12       15.556594                                       +
  +          13       17.494917                                       +
  +          14       17.501252                                       +
  + ----------------------------------------------------------------- +
  +  Spin=1 kpt=   15 (  0.272727  0.272727  0.272727) kpt-group=  1  +
  + ----------------------------------------------------------------- +
  +                                                                   +
  +           1      -11.779999                                       +
  +           2       -4.394346                                       +
  +           3       -0.714475                                       +
  +           4       -0.686881                                       +
  +           5        3.704143                                       +
  +           6        5.289431                                       +
  +           7        5.308757                                       +
  +           8        9.252727                                       +
  +           9        9.502015                                       +
  +          10        9.508551                                       +
  +          11       11.094424                                       +
  +          12       14.569857                                       +
  +          13       17.580029                                       +
  +          14       17.588090                                       +
  + ----------------------------------------------------------------- +
  +  Spin=1 kpt=   16 (  0.227273  0.227273  0.227273) kpt-group=  1  +
  + ----------------------------------------------------------------- +
  +                                                                   +
  +           1      -12.087988                                       +
  +           2       -3.492370                                       +
  +           3       -0.547888                                       +
  +           4       -0.519547                                       +
  +           5        3.865064                                       +
  +           6        5.190303                                       +
  +           7        5.205606                                       +
  +           8        8.465604                                       +
  +           9        9.243996                                       +
  +          10        9.247932                                       +
  +          11       11.248020                                       +
  +          12       13.628810                                       +
  +          13       16.782293                                       +
  +          14       16.798778                                       +
  + ----------------------------------------------------------------- +
  +  Spin=1 kpt=   17 (  0.181818  0.181818  0.181818) kpt-group=  1  +
  + ----------------------------------------------------------------- +
  +                                                                   +
  +           1      -12.343381                                       +
  +           2       -2.556192                                       +
  +           3       -0.360813                                       +
  +           4       -0.331410                                       +
  +           5        4.036339                                       +
  +           6        4.992122                                       +
  +           7        5.003503                                       +
  +           8        7.602785                                       +
  +           9        9.183942                                       +
  +          10        9.185502                                       +
  +          11       11.281407                                       +
  +          12       13.006003                                       +
  +          13       15.856710                                       +
  +          14       15.876908                                       +
  + ----------------------------------------------------------------- +
  +  Spin=1 kpt=   18 (  0.136364  0.136364  0.136364) kpt-group=  1  +
  + ----------------------------------------------------------------- +
  +                                                                   +
  +           1      -12.546716                                       +
  +           2       -1.623772                                       +
  +           3       -0.177070                                       +
  +           4       -0.146221                                       +
  +           5        4.205306                                       +
  +           6        4.735119                                       +
  +           7        4.744255                                       +
  +           8        6.756339                                       +
  +           9        9.329773                                       +
  +          10        9.330321                                       +
  +          11       10.961568                                       +
  +          12       12.926679                                       +
  +          13       14.992483                                       +
  +          14       15.015309                                       +
  + ----------------------------------------------------------------- +
  +  Spin=1 kpt=   19 (  0.090909  0.090909  0.090909) kpt-group=  1  +
  + ----------------------------------------------------------------- +
  +                                                                   +
  +           1      -12.693064                                       +
  +           2       -0.724603                                       +
  +           3        0.002167                                       +
  +           4        0.034783                                       +
  +           5        4.302443                                       +
  +           6        4.471265                                       +
  +           7        4.480493                                       +
  +           8        5.965303                                       +
  +           9        9.567097                                       +
  +          10        9.568097                                       +
  +          11       10.498367                                       +
  +          12       13.175369                                       +
  +          13       14.257287                                       +
  +          14       14.282677                                       +
  + ----------------------------------------------------------------- +
  +  Spin=1 kpt=   20 (  0.045455  0.045455  0.045455) kpt-group=  1  +
  + ----------------------------------------------------------------- +
  +                                                                   +
  +           1      -12.779405                                       +
  +           2        0.006299                                       +
  +           3        0.135412                                       +
  +           4        0.169600                                       +
  +           5        4.272968                                       +
  +           6        4.283061                                       +
  +           7        4.287915                                       +
  +           8        5.407231                                       +
  +           9        9.800561                                       +
  +          10        9.802143                                       +
  +          11       10.158397                                       +
  +          12       13.450868                                       +
  +          13       13.739905                                       +
  +          14       13.767657                                       +
  + ----------------------------------------------------------------- +
  +  Spin=1 kpt=   21 (  0.000000  0.000000  0.000000) kpt-group=  1  +
  + ----------------------------------------------------------------- +
  +                                                                   +
  +           1      -12.809011                                       +
  +           2        0.183156                                       +
  +           3        0.218203                                       +
  +           4        0.315487                                       +
  +           5        4.199280                                       +
  +           6        4.205590                                       +
  +           7        4.215471                                       +
  +           8        5.231141                                       +
  +           9        9.900857                                       +
  +          10        9.903024                                       +
  +          11       10.035252                                       +
  +          12       13.543035                                       +
  +          13       13.570207                                       +
  +          14       13.574688                                       +
  + ----------------------------------------------------------------- +
  +  Spin=1 kpt=   22 (  0.041667  0.000000  0.041667) kpt-group=  1  +
  + ----------------------------------------------------------------- +
  +                                                                   +
  +           1      -12.775848                                       +
  +           2        0.031239                                       +
  +           3        0.083209                                       +
  +           4        0.170515                                       +
  +           5        4.129740                                       +
  +           6        4.367176                                       +
  +           7        4.372109                                       +
  +           8        5.408457                                       +
  +           9        9.647701                                       +
  +          10        9.937629                                       +
  +          11       10.172549                                       +
  +          12       13.608624                                       +
  +          13       13.630425                                       +
  +          14       13.739508                                       +
  + ----------------------------------------------------------------- +
  +  Spin=1 kpt=   23 (  0.083333  0.000000  0.083333) kpt-group=  1  +
  + ----------------------------------------------------------------- +
  +                                                                   +
  +           1      -12.678138                                       +
  +           2       -0.447769                                       +
  +           3       -0.231426                                       +
  +           4       -0.143988                                       +
  +           5        3.919761                                       +
  +           6        4.794075                                       +
  +           7        4.799020                                       +
  +           8        5.836841                                       +
  +           9        9.075956                                       +
  +          10       10.047711                                       +
  +          11       10.559695                                       +
  +          12       13.775531                                       +
  +          13       13.796461                                       +
  +          14       14.132126                                       +
  + ----------------------------------------------------------------- +
  +  Spin=1 kpt=   24 (  0.125000  0.000000  0.125000) kpt-group=  1  +
  + ----------------------------------------------------------------- +
  +                                                                   +
  +           1      -12.513202                                       +
  +           2       -1.123551                                       +
  +           3       -0.626783                                       +
  +           4       -0.542049                                       +
  +           5        3.635697                                       +
  +           6        5.392105                                       +
  +           7        5.394100                                       +
  +           8        6.245474                                       +
  +           9        8.581039                                       +
  +          10       10.231692                                       +
  +          11       11.148362                                       +
  +          12       14.055442                                       +
  +          13       14.076326                                       +
  +          14       14.588405                                       +
  + ----------------------------------------------------------------- +
  +  Spin=1 kpt=   25 (  0.166667  0.000000  0.166667) kpt-group=  1  +
  + ----------------------------------------------------------------- +
  +                                                                   +
  +           1      -12.283001                                       +
  +           2       -1.889600                                       +
  +           3       -1.042356                                       +
  +           4       -0.954654                                       +
  +           5        3.318087                                       +
  +           6        6.092369                                       +
  +           7        6.098641                                       +
  +           8        6.193699                                       +
  +           9        8.639260                                       +
  +          10       10.496227                                       +
  +          11       11.882782                                       +
  +          12       14.442570                                       +
  +          13       14.463298                                       +
  +          14       15.069741                                       +
  + ----------------------------------------------------------------- +
  +  Spin=1 kpt=   26 (  0.208333  0.000000  0.208333) kpt-group=  1  +
  + ----------------------------------------------------------------- +
  +                                                                   +
  +           1      -11.987902                                       +
  +           2       -2.695192                                       +
  +           3       -1.439997                                       +
  +           4       -1.352431                                       +
  +           5        3.006340                                       +
  +           6        5.658970                                       +
  +           7        6.843343                                       +
  +           8        6.851839                                       +
  +           9        9.267837                                       +
  +          10       10.825090                                       +
  +          11       12.714373                                       +
  +          12       14.927542                                       +
  +          13       14.947752                                       +
  +          14       15.607978                                       +
  + ----------------------------------------------------------------- +
  +  Spin=1 kpt=   27 (  0.250000  0.000000  0.250000) kpt-group=  1  +
  + ----------------------------------------------------------------- +
  +                                                                   +
  +           1      -11.630804                                       +
  +           2       -3.524388                                       +
  +           3       -1.806651                                       +
  +           4       -1.722369                                       +
  +           5        2.728836                                       +
  +           6        4.977169                                       +
  +           7        7.624207                                       +
  +           8        7.633376                                       +
  +           9       10.112178                                       +
  +          10       11.224100                                       +
  +          11       13.596192                                       +
  +          12       15.460976                                       +
  +          13       15.479819                                       +
  +          14       16.166036                                       +
  + ----------------------------------------------------------------- +
  +  Spin=1 kpt=   28 (  0.291667  0.000000  0.291667) kpt-group=  1  +
  + ----------------------------------------------------------------- +
  +                                                                   +
  +           1      -11.209385                                       +
  +           2       -4.352922                                       +
  +           3       -2.121443                                       +
  +           4       -2.033580                                       +
  +           5        2.498391                                       +
  +           6        4.330115                                       +
  +           7        8.439922                                       +
  +           8        8.448736                                       +
  +           9       11.047940                                       +
  +          10       11.712824                                       +
  +          11       14.478619                                       +
  +          12       15.961020                                       +
  +          13       15.976512                                       +
  +          14       16.845559                                       +
  + ----------------------------------------------------------------- +
  +  Spin=1 kpt=   29 (  0.333333  0.000000  0.333333) kpt-group=  1  +
  + ----------------------------------------------------------------- +
  +                                                                   +
  +           1      -10.730592                                       +
  +           2       -5.177664                                       +
  +           3       -2.389235                                       +
  +           4       -2.301201                                       +
  +           5        2.324211                                       +
  +           6        3.754835                                       +
  +           7        9.268123                                       +
  +           8        9.276120                                       +
  +           9       11.970339                                       +
  +          10       12.251566                                       +
  +          11       15.265396                                       +
  +          12       16.057248                                       +
  +          13       16.066115                                       +
  +          14       17.628981                                       +
  + ----------------------------------------------------------------- +
  +  Spin=1 kpt=   30 (  0.375000  0.000000  0.375000) kpt-group=  1  +
  + ----------------------------------------------------------------- +
  +                                                                   +
  +           1      -10.194415                                       +
  +           2       -5.988913                                       +
  +           3       -2.600344                                       +
  +           4       -2.515262                                       +
  +           5        2.219582                                       +
  +           6        3.267164                                       +
  +           7       10.109163                                       +
  +           8       10.116283                                       +
  +           9       12.859711                                       +
  +          10       12.872969                                       +
  +          11       15.533488                                       +
  +          12       15.537650                                       +
  +          13       15.819904                                       +
  +          14       17.912931                                       +
  + ----------------------------------------------------------------- +
  +  Spin=1 kpt=   31 (  0.416667  0.000000  0.416667) kpt-group=  1  +
  + ----------------------------------------------------------------- +
  +                                                                   +
  +           1       -9.601213                                       +
  +           2       -6.779810                                       +
  +           3       -2.750752                                       +
  +           4       -2.661559                                       +
  +           5        2.184643                                       +
  +           6        2.869924                                       +
  +           7       10.956698                                       +
  +           8       10.963046                                       +
  +           9       13.537290                                       +
  +          10       13.732552                                       +
  +          11       14.747730                                       +
  +          12       14.750568                                       +
  +          13       15.988079                                       +
  +          14       16.917986                                       +
  + ----------------------------------------------------------------- +
  +  Spin=1 kpt=   32 (  0.458333  0.000000  0.458333) kpt-group=  1  +
  + ----------------------------------------------------------------- +
  +                                                                   +
  +           1       -8.960622                                       +
  +           2       -7.543756                                       +
  +           3       -2.844390                                       +
  +           4       -2.754920                                       +
  +           5        2.225923                                       +
  +           6        2.564053                                       +
  +           7       11.773303                                       +
  +           8       11.779760                                       +
  +           9       13.900945                                       +
  +          10       13.903748                                       +
  +          11       14.274346                                       +
  +          12       14.513027                                       +
  +          13       15.740668                                       +
  +          14       15.964321                                       +
  + ----------------------------------------------------------------- +
  +  Spin=1 kpt=   33 (  0.500000  0.000000  0.500000) kpt-group=  1  +
  + ----------------------------------------------------------------- +
  +                                                                   +
  +           1       -8.281278                                       +
  +           2       -8.265580                                       +
  +           3       -2.875324                                       +
  +           4       -2.789333                                       +
  +           5        2.328230                                       +
  +           6        2.366135                                       +
  +           7       12.286072                                       +
  +           8       12.294765                                       +
  +           9       13.366850                                       +
  +          10       13.371826                                       +
  +          11       15.083810                                       +
  +          12       15.088838                                       +
  +          13       15.198714                                       +
  +          14       15.220182                                       +
  + ----------------------------------------------------------------- +
  +  Spin=1 kpt=   34 (  0.500000  0.041667  0.541667) kpt-group=  1  +
  + ----------------------------------------------------------------- +
  +                                                                   +
  +           1       -8.269871                                       +
  +           2       -8.254295                                       +
  +           3       -2.947649                                       +
  +           4       -2.883633                                       +
  +           5        2.506539                                       +
  +           6        2.523469                                       +
  +           7       11.981668                                       +
  +           8       11.988290                                       +
  +           9       13.065168                                       +
  +          10       13.071934                                       +
  +          11       15.158820                                       +
  +          12       15.170220                                       +
  +          13       15.774154                                       +
  +          14       15.787175                                       +
  + ----------------------------------------------------------------- +
  +  Spin=1 kpt=   35 (  0.500000  0.083333  0.583333) kpt-group=  1  +
  + ----------------------------------------------------------------- +
  +                                                                   +
  +           1       -8.238376                                       +
  +           2       -8.222989                                       +
  +           3       -3.137455                                       +
  +           4       -3.113137                                       +
  +           5        2.962373                                       +
  +           6        2.986758                                       +
  +           7       11.072288                                       +
  +           8       11.075618                                       +
  +           9       12.887189                                       +
  +          10       12.893845                                       +
  +          11       15.218688                                       +
  +          12       15.229801                                       +
  +          13       16.911236                                       +
  +          14       16.921650                                       +
  + ----------------------------------------------------------------- +
  +  Spin=1 kpt=   36 (  0.500000  0.125000  0.625000) kpt-group=  1  +
  + ----------------------------------------------------------------- +
  +                                                                   +
  +           1       -8.196687                                       +
  +           2       -8.181453                                       +
  +           3       -3.390508                                       +
  +           4       -3.383008                                       +
  +           5        3.629218                                       +
  +           6        3.669460                                       +
  +           7        9.944877                                       +
  +           8        9.947271                                       +
  +           9       12.848070                                       +
  +          10       12.854293                                       +
  +          11       15.269289                                       +
  +          12       15.279020                                       +
  +          13       18.095888                                       +
  +          14       18.105338                                       +
  + ----------------------------------------------------------------- +
  +  Spin=1 kpt=   37 (  0.500000  0.166667  0.666667) kpt-group=  1  +
  + ----------------------------------------------------------------- +
  +                                                                   +
  +           1       -8.151702                                       +
  +           2       -8.136926                                       +
  +           3       -3.629038                                       +
  +           4       -3.620576                                       +
  +           5        4.459111                                       +
  +           6        4.497378                                       +
  +           7        8.796052                                       +
  +           8        8.797285                                       +
  +           9       12.844639                                       +
  +          10       12.850579                                       +
  +          11       15.338134                                       +
  +          12       15.346479                                       +
  +          13       19.029040                                       +
  +          14       19.037769                                       +
  + ----------------------------------------------------------------- +
  +  Spin=1 kpt=   38 (  0.500000  0.208333  0.708333) kpt-group=  1  +
  + ----------------------------------------------------------------- +
  +                                                                   +
  +           1       -8.117989                                       +
  +           2       -8.104067                                       +
  +           3       -3.793699                                       +
  +           4       -3.782254                                       +
  +           5        5.368968                                       +
  +           6        5.402218                                       +
  +           7        7.691566                                       +
  +           8        7.694980                                       +
  +           9       12.846892                                       +
  +          10       12.852907                                       +
  +          11       15.386238                                       +
  +          12       15.393876                                       +
  +          13       19.078495                                       +
  +          14       19.088751                                       +
  + ----------------------------------------------------------------- +
  +  Spin=1 kpt=   39 (  0.500000  0.250000  0.750000) kpt-group=  1  +
  + ----------------------------------------------------------------- +
  +                                                                   +
  +           1       -8.103007                                       +
  +           2       -8.089899                                       +
  +           3       -3.850543                                       +
  +           4       -3.839656                                       +
  +           5        6.056072                                       +
  +           6        6.077140                                       +
  +           7        6.943891                                       +
  +           8        6.957024                                       +
  +           9       12.848165                                       +
  +          10       12.854769                                       +
  +          11       15.411193                                       +
  +          12       15.419176                                       +
  +          13       19.014953                                       +
  +          14       19.025576                                       +
  + ----------------------------------------------------------------- +
  +  Spin=1 kpt=   40 (  0.475000  0.275000  0.750000) kpt-group=  1  +
  + ----------------------------------------------------------------- +
  +                                                                   +
  +           1       -8.328737                                       +
  +           2       -7.880188                                       +
  +           3       -4.017929                                       +
  +           4       -3.593445                                       +
  +           5        5.353084                                       +
  +           6        6.134155                                       +
  +           7        7.305788                                       +
  +           8        7.336165                                       +
  +           9       12.349513                                       +
  +          10       13.127966                                       +
  +          11       15.091025                                       +
  +          12       15.918868                                       +
  +          13       18.599983                                       +
  +          14       19.339828                                       +
  + ----------------------------------------------------------------- +
  +  Spin=1 kpt=   41 (  0.450000  0.300000  0.750000) kpt-group=  1  +
  + ----------------------------------------------------------------- +
  +                                                                   +
  +           1       -8.506819                                       +
  +           2       -7.743401                                       +
  +           3       -4.155948                                       +
  +           4       -3.238561                                       +
  +           5        4.446846                                       +
  +           6        6.080663                                       +
  +           7        7.855319                                       +
  +           8        8.043985                                       +
  +           9       11.776652                                       +
  +          10       12.856141                                       +
  +          11       15.271099                                       +
  +          12       16.475131                                       +
  +          13       18.269665                                       +
  +          14       19.263789                                       +
  + ----------------------------------------------------------------- +
  +  Spin=1 kpt=   42 (  0.425000  0.325000  0.750000) kpt-group=  1  +
  + ----------------------------------------------------------------- +
  +                                                                   +
  +           1       -8.634171                                       +
  +           2       -7.665739                                       +
  +           3       -4.255758                                       +
  +           4       -2.848407                                       +
  +           5        3.661943                                       +
  +           6        6.012273                                       +
  +           7        8.476958                                       +
  +           8        8.826613                                       +
  +           9       11.164154                                       +
  +          10       12.183219                                       +
  +          11       15.835727                                       +
  +          12       17.054595                                       +
  +          13       18.031681                                       +
  +          14       18.964955                                       +
  + ----------------------------------------------------------------- +
  +  Spin=1 kpt=   43 (  0.400000  0.350000  0.750000) kpt-group=  1  +
  + ----------------------------------------------------------------- +
  +                                                                   +
  +           1       -8.707681                                       +
  +           2       -7.626124                                       +
  +           3       -4.315190                                       +
  +           4       -2.535062                                       +
  +           5        3.116186                                       +
  +           6        5.967388                                       +
  +           7        9.110080                                       +
  +           8        9.644468                                       +
  +           9       10.538082                                       +
  +          10       11.382633                                       +
  +          11       16.509508                                       +
  +          12       17.630009                                       +
  +          13       17.843919                                       +
  +          14       18.613107                                       +
  + ----------------------------------------------------------------- +
  +  Spin=1 kpt=   44 (  0.375000  0.375000  0.750000) kpt-group=  1  +
  + ----------------------------------------------------------------- +
  +                                                                   +
  +           1       -8.731624                                       +
  +           2       -7.614265                                       +
  +           3       -4.334971                                       +
  +           4       -2.411291                                       +
  +           5        2.921262                                       +
  +           6        5.951747                                       +
  +           7        9.567403                                       +
  +           8       10.085070                                       +
  +           9       10.324259                                       +
  +          10       10.707027                                       +
  +          11       16.960989                                       +
  +          12       17.672510                                       +
  +          13       18.095358                                       +
[...]
  +  Spin=2 kpt=   31 (  0.416667  0.000000  0.416667) kpt-group=  1  +
  + ----------------------------------------------------------------- +
  +                                                                   +
  +           1       -9.601220                                       +
  +           2       -6.779830                                       +
  +           3       -2.750738                                       +
  +           4       -2.661570                                       +
  +           5        2.184638                                       +
  +           6        2.869921                                       +
  +           7       10.956721                                       +
  +           8       10.963054                                       +
  +           9       13.537308                                       +
  +          10       13.732539                                       +
  +          11       14.747722                                       +
  +          12       14.750578                                       +
  +          13       15.988058                                       +
  +          14       16.918004                                       +
  + ----------------------------------------------------------------- +
  +  Spin=2 kpt=   32 (  0.458333  0.000000  0.458333) kpt-group=  1  +
  + ----------------------------------------------------------------- +
  +                                                                   +
  +           1       -8.960630                                       +
  +           2       -7.543771                                       +
  +           3       -2.844376                                       +
  +           4       -2.754932                                       +
  +           5        2.225921                                       +
  +           6        2.564048                                       +
  +           7       11.773330                                       +
  +           8       11.779769                                       +
  +           9       13.900933                                       +
  +          10       13.903753                                       +
  +          11       14.274364                                       +
  +          12       14.513010                                       +
  +          13       15.740647                                       +
  +          14       15.964339                                       +
  + ----------------------------------------------------------------- +
  +  Spin=2 kpt=   33 (  0.500000  0.000000  0.500000) kpt-group=  1  +
  + ----------------------------------------------------------------- +
  +                                                                   +
  +           1       -8.281286                                       +
  +           2       -8.265594                                       +
  +           3       -2.875310                                       +
  +           4       -2.789345                                       +
  +           5        2.328241                                       +
  +           6        2.366117                                       +
  +           7       12.286109                                       +
  +           8       12.294780                                       +
  +           9       13.366831                                       +
  +          10       13.371821                                       +
  +          11       15.083830                                       +
  +          12       15.088854                                       +
  +          13       15.198691                                       +
  +          14       15.220165                                       +
  + ----------------------------------------------------------------- +
  +  Spin=2 kpt=   34 (  0.500000  0.041667  0.541667) kpt-group=  1  +
  + ----------------------------------------------------------------- +
  +                                                                   +
  +           1       -8.269879                                       +
  +           2       -8.254309                                       +
  +           3       -2.947633                                       +
  +           4       -2.883644                                       +
  +           5        2.506548                                       +
  +           6        2.523450                                       +
  +           7       11.981699                                       +
  +           8       11.988303                                       +
  +           9       13.065163                                       +
  +          10       13.071924                                       +
  +          11       15.158822                                       +
  +          12       15.170221                                       +
  +          13       15.774152                                       +
  +          14       15.787169                                       +
  + ----------------------------------------------------------------- +
  +  Spin=2 kpt=   35 (  0.500000  0.083333  0.583333) kpt-group=  1  +
  + ----------------------------------------------------------------- +
  +                                                                   +
  +           1       -8.238384                                       +
  +           2       -8.223002                                       +
  +           3       -3.137438                                       +
  +           4       -3.113146                                       +
  +           5        2.962353                                       +
  +           6        2.986763                                       +
  +           7       11.072306                                       +
  +           8       11.075627                                       +
  +           9       12.887192                                       +
  +          10       12.893843                                       +
  +          11       15.218689                                       +
  +          12       15.229800                                       +
  +          13       16.911237                                       +
  +          14       16.921645                                       +
  + ----------------------------------------------------------------- +
  +  Spin=2 kpt=   36 (  0.500000  0.125000  0.625000) kpt-group=  1  +
  + ----------------------------------------------------------------- +
  +                                                                   +
  +           1       -8.196694                                       +
  +           2       -8.181466                                       +
  +           3       -3.390494                                       +
  +           4       -3.383013                                       +
  +           5        3.629200                                       +
  +           6        3.669463                                       +
  +           7        9.944890                                       +
  +           8        9.947278                                       +
  +           9       12.848076                                       +
  +          10       12.854293                                       +
  +          11       15.269291                                       +
  +          12       15.279019                                       +
  +          13       18.095889                                       +
  +          14       18.105333                                       +
  + ----------------------------------------------------------------- +
  +  Spin=2 kpt=   37 (  0.500000  0.166667  0.666667) kpt-group=  1  +
  + ----------------------------------------------------------------- +
  +                                                                   +
  +           1       -8.151708                                       +
  +           2       -8.136938                                       +
  +           3       -3.629028                                       +
  +           4       -3.620578                                       +
  +           5        4.459096                                       +
  +           6        4.497377                                       +
  +           7        8.796064                                       +
  +           8        8.797292                                       +
  +           9       12.844645                                       +
  +          10       12.850580                                       +
  +          11       15.338139                                       +
  +          12       15.346478                                       +
  +          13       19.029038                                       +
  +          14       19.037769                                       +
  + ----------------------------------------------------------------- +
  +  Spin=2 kpt=   38 (  0.500000  0.208333  0.708333) kpt-group=  1  +
  + ----------------------------------------------------------------- +
  +                                                                   +
  +           1       -8.117994                                       +
  +           2       -8.104078                                       +
  +           3       -3.793691                                       +
  +           4       -3.782256                                       +
  +           5        5.368957                                       +
  +           6        5.402213                                       +
  +           7        7.691577                                       +
  +           8        7.694989                                       +
  +           9       12.846897                                       +
  +          10       12.852907                                       +
  +          11       15.386246                                       +
  +          12       15.393875                                       +
  +          13       19.078496                                       +
  +          14       19.088755                                       +
  + ----------------------------------------------------------------- +
  +  Spin=2 kpt=   39 (  0.500000  0.250000  0.750000) kpt-group=  1  +
  + ----------------------------------------------------------------- +
  +                                                                   +
  +           1       -8.103011                                       +
  +           2       -8.089908                                       +
  +           3       -3.850538                                       +
  +           4       -3.839660                                       +
  +           5        6.056076                                       +
  +           6        6.077132                                       +
  +           7        6.943891                                       +
  +           8        6.957034                                       +
  +           9       12.848167                                       +
  +          10       12.854767                                       +
  +          11       15.411203                                       +
  +          12       15.419176                                       +
  +          13       19.014955                                       +
  +          14       19.025581                                       +
  + ----------------------------------------------------------------- +
  +  Spin=2 kpt=   40 (  0.475000  0.275000  0.750000) kpt-group=  1  +
  + ----------------------------------------------------------------- +
  +                                                                   +
  +           1       -8.328741                                       +
  +           2       -7.880197                                       +
  +           3       -4.017931                                       +
  +           4       -3.593442                                       +
  +           5        5.353097                                       +
  +           6        6.134153                                       +
  +           7        7.305782                                       +
  +           8        7.336168                                       +
  +           9       12.349513                                       +
  +          10       13.127964                                       +
  +          11       15.091042                                       +
  +          12       15.918866                                       +
  +          13       18.599982                                       +
  +          14       19.339834                                       +
  + ----------------------------------------------------------------- +
  +  Spin=2 kpt=   41 (  0.450000  0.300000  0.750000) kpt-group=  1  +
  + ----------------------------------------------------------------- +
  +                                                                   +
  +           1       -8.506823                                       +
  +           2       -7.743409                                       +
  +           3       -4.155951                                       +
  +           4       -3.238561                                       +
  +           5        4.446861                                       +
  +           6        6.080665                                       +
  +           7        7.855314                                       +
  +           8        8.043981                                       +
  +           9       11.776653                                       +
  +          10       12.856141                                       +
  +          11       15.271115                                       +
  +          12       16.475128                                       +
  +          13       18.269664                                       +
  +          14       19.263795                                       +
  + ----------------------------------------------------------------- +
  +  Spin=2 kpt=   42 (  0.425000  0.325000  0.750000) kpt-group=  1  +
  + ----------------------------------------------------------------- +
  +                                                                   +
  +           1       -8.634174                                       +
  +           2       -7.665747                                       +
  +           3       -4.255761                                       +
  +           4       -2.848411                                       +
  +           5        3.661961                                       +
  +           6        6.012277                                       +
  +           7        8.476953                                       +
  +           8        8.826609                                       +
  +           9       11.164156                                       +
  +          10       12.183223                                       +
  +          11       15.835741                                       +
  +          12       17.054592                                       +
  +          13       18.031680                                       +
  +          14       18.964959                                       +
  + ----------------------------------------------------------------- +
  +  Spin=2 kpt=   43 (  0.400000  0.350000  0.750000) kpt-group=  1  +
  + ----------------------------------------------------------------- +
  +                                                                   +
  +           1       -8.707684                                       +
  +           2       -7.626132                                       +
  +           3       -4.315194                                       +
  +           4       -2.535067                                       +
  +           5        3.116205                                       +
  +           6        5.967392                                       +
  +           7        9.110075                                       +
  +           8        9.644464                                       +
  +           9       10.538085                                       +
  +          10       11.382638                                       +
  +          11       16.509519                                       +
  +          12       17.630005                                       +
  +          13       17.843922                                       +
  +          14       18.613078                                       +
  + ----------------------------------------------------------------- +
  +  Spin=2 kpt=   44 (  0.375000  0.375000  0.750000) kpt-group=  1  +
  + ----------------------------------------------------------------- +
  +                                                                   +
  +           1       -8.731627                                       +
  +           2       -7.614274                                       +
  +           3       -4.334975                                       +
  +           4       -2.411295                                       +
  +           5        2.921280                                       +
  +           6        5.951751                                       +
  +           7        9.567403                                       +
  +           8       10.085069                                       +
  +           9       10.324264                                       +
  +          10       10.707025                                       +
  +          11       16.960994                                       +
  +          12       17.672511                                       +
  +          13       18.095347                                       +
  +          14       18.244267                                       +
  =====================================================================

Writing model to Si2.orbitals

 ***************** Symmetrised Forces *****************
 *                                                    *
 *            Cartesian components (eV/A)             *
 * -------------------------------------------------- *
 *                   x            y            z      *
 *                                                    *
 * Si        1      0.00000      0.00000      0.00000 *
 * Si        2      0.00000      0.00000      0.00000 *
 *                                                    *
 ******************************************************

 Pseudo atomic calculation performed for Si 3s2 3p2

 Converged in 16 iterations to a total energy of -101.8630 eV

Charge spilling parameter for spin component 1 = 1.09%
Charge spilling parameter for spin component 2 = 1.09%

     Atomic Populations (Mulliken)
     -----------------------------
Species   Ion     s      p      d      f     Total  Charge (e)  Spin (hbar/2)
===========================================================================
  Si       1     1.34   2.66   0.00   0.00   4.00     0.00       -0.00
  Si       2     1.34   2.66   0.00   0.00   4.00     0.00       -0.00
===========================================================================

            Bond              Population        Spin       Length (A)
======================================================================
         Si 1 -- Si 2              3.04         0.00          2.33434
======================================================================


Writing analysis data to Si2.castep_bin

Writing model to Si2.check
 
 A BibTeX formatted list of references used in this run has been written to 
 Si2.bib
 
Initialisation time =      1.47 s
Calculation time    =   2103.37 s
Finalisation time   =      0.03 s
Total time          =   2104.88 s
