 +-------------------------------------------------+
 |                                                 |
 |      CCC   AA    SSS  TTTTT  EEEEE  PPPP        |
 |     C     A  A  S       T    E      P   P       |
 |     C     AAAA   SS     T    EEE    PPPP        |
 |     C     A  A     S    T    E      P           |
 |      CCC  A  A  SSS     T    EEEEE  P           |
 |                                                 |
 +-------------------------------------------------+
 |                                                 |
 | Welcome to Academic Release CASTEP version 16.1 |          
 | Ab Initio Total Energy Program                  |
 |                                                 |
 | Authors:                                        |
 | M. Segall, M. Probert, C. Pickard, P. Hasnip,   |
 | S. Clark, K. Refson, J. R. Yates, M. Payne      |
 |                                                 |
 | Contributors:                                   |
 | P. Lindan, P. Haynes, J. White, V. Milman,      |
 | N. Govind, M. Gibson, P. Tulip, V. Cocula,      |
 | B. Montanari, D. Quigley, M. Glover,            |
 | L. Bernasconi, A. Perlov, M. Plummer,           |
 | E. McNellis, J. Meyer, J. Gale, D. Jochym       |
 | J. Aarons, B. Walker, R. Gillen, D. Jones       |
 | T. Green, I. J. Bush, C. J. Armstrong,          |
 | E. J. Higgins, E. L. Brown, M. S. McFly         |
 |                                                 |
 | Copyright (c) 2000 - 2015                       |
 |                                                 |
 |     Distributed under the terms of an           |
 |     Agreement between the United Kingdom        |
 |     Car-Parrinello (UKCP) Consortium,           |
 |     Daresbury Laboratory and Accelrys, Inc.     |
 |                                                 |
 | Please cite                                     |
 |                                                 |
 |     "First principles methods using CASTEP"     |
 |                                                 |
 |         Zeitschrift fuer Kristallographie       |
 |           220(5-6) pp. 567-570 (2005)           |
 |                                                 |
 | S. J. Clark, M. D. Segall, C. J. Pickard,       |
 | P. J. Hasnip, M. J. Probert, K. Refson,         |
 | M. C. Payne                                     |
 |                                                 |
 |       in all publications arising from          |
 |              your use of CASTEP                 |
 |                                                 |
 +-------------------------------------------------+


 Compiled for darwin_x86_64_gfortran5.0 on Fri, 19 Feb 2016 13:44:46 +0000
 from code version Version unavailable
 Compiler: GNU Fortran 5.3.0; Optimisation: intermediate
 MATHLIBS: default (LAPACK version 3.2.1)
 FFT Lib : default
 Fundamental constants values: CODATA 2010

 Run started: Mon, 22 Feb 2016 14:45:01 +0000
 Info: number of up-spin electrons is equal to the
       number of down-spins and spin_polarized=true
     - consider setting spin_polarized=false.

 ******************************* User Parameters *******************************
iprint                : 2             # verbosity control (I)
task                  : bandstructure # type of calculation (S)
calculatedensdiff     : T             # calculate density difference based on atoms (L)
writeformatteddensity : T             # formatted density on/off (L)
optstrategy           : speed         # optimization strategy (S)
xcfunctional          : b3lyp         # exchange-correlation functional (S)
basisprecision        : MEDIUM        # accuracy of basis set (S)
spinpolarised         : T             # spin polarised (L)
fixoccupancy          : T             # treat system as an insulator (L)
numdumpcycles         : 0             # frequency of wavefunction dumps (I)

 *******************************************************************************
  

 Pseudo atomic calculation performed for Si 3s2 3p2

 Converged in 16 iterations to a total energy of -101.8630 eV

Initialising basis set.

Standard grid dimensions:  16  16  16
Fine grid dimensions:      16  16  16

Plane wave load balancing: max    265 min    243 average    252
True cut-off energy of basis :   7.332
 Calculation not parallelised.

 ************************************ Title ************************************
 

 ***************************** General Parameters ******************************
  
 output verbosity                               : verbose (2)
 write checkpoint data to                       : Si2.check
 type of calculation                            : band structure
 stress calculation                             : off
 density difference calculation                 : on
 electron localisation func (ELF) calculation   : off
 Hirshfeld analysis                             : off
 unlimited duration calculation
 timing information                             : on
 memory usage estimate                          : on
 write final potential to formatted file        : off
 write final density to formatted file          : on
 write BibTeX reference list                    : on
 write OTFG pseudopotential files               : on
 checkpoint writing                             : both castep_bin and check files
  
 output         length unit                     : A
 output           mass unit                     : amu
 output           time unit                     : ps
 output         charge unit                     : e
 output           spin unit                     : hbar/2
 output         energy unit                     : eV
 output          force unit                     : eV/A
 output       velocity unit                     : A/ps
 output       pressure unit                     : GPa
 output     inv_length unit                     : 1/A
 output      frequency unit                     : cm-1
 output force constant unit                     : eV/A**2
 output         volume unit                     : A**3
 output   IR intensity unit                     : (D/A)**2/amu
 output         dipole unit                     : D
 output         efield unit                     : eV/A/e
 output        entropy unit                     : J/mol/K
  
 wavefunctions paging                           : none
 random number generator seed                   : randomised (144501123)
 data distribution                              : optimal for this architecture
 optimization strategy                          : maximize speed(+++)

 *********************** Exchange-Correlation Parameters ***********************
  
 using functional                               : hybrid B3LYP
 relativistic treatment                         : Koelling-Harmon
 DFT+D: Semi-empirical dispersion correction    : off

 ************************* Pseudopotential Parameters **************************
  
 pseudopotential representation                 : reciprocal space
 <beta|phi> representation                      : reciprocal space
 spin-orbit coupling                            : off

 **************************** Basis Set Parameters *****************************
  
 basis set accuracy                             : MEDIUM
 plane wave basis set cut-off                   :   200.0000   eV
 size of standard grid                          :     1.7500
 size of   fine   gmax                          :    12.6792   1/A
 finite basis set correction                    : none

 **************************** Electronic Parameters ****************************
  
 number of  electrons                           :  8.000    
 net charge of system                           :  0.000    
 net spin   of system                           :  0.000    
 number of  up  spins                           :  4.000    
 number of down spins                           :  4.000    
 treating system as spin-polarized
 number of bands                                :          4

 ********************* Electronic Minimization Parameters **********************
  
 Method: Treating system as non-metallic,
         and number of  SD  steps               :          1
         and number of  CG  steps               :          4
  
 total energy / atom convergence tol.           : 0.1000E-04   eV
 max force / atom convergence tol.              : ignored
 convergence tolerance window                   :          3   cycles
 max. number of SCF cycles                      :         30
 periodic dipole correction                     : NONE

 *********************** Population Analysis Parameters ************************
  
 Population analysis with cutoff                :  3.000       A

 ************************** Band Structure Parameters **************************
  
 max. number of iterations                      :         60
 max. CG steps in BS calc                       :         25
 number of bands / k-point                      :         14
 band convergence tolerance                     : 0.1000E-05   eV
 write orbitals file                            : on

 *******************************************************************************
  

                           -------------------------------
                                      Unit Cell
                           -------------------------------
        Real Lattice(A)                      Reciprocal Lattice(1/A)
   2.6954645   2.6954645   0.0000000        1.1655107   1.1655107  -1.1655107
   2.6954645   0.0000000   2.6954645        1.1655107  -1.1655107   1.1655107
   0.0000000   2.6954645   2.6954645       -1.1655107   1.1655107   1.1655107

                       Lattice parameters(A)       Cell Angles
                    a =    3.811962          alpha =   60.000000
                    b =    3.811962          beta  =   60.000000
                    c =    3.811962          gamma =   60.000000

                       Current cell volume =   39.167950       A**3

                           -------------------------------
                                     Cell Contents
                           -------------------------------
                         Total number of ions in cell =    2
                      Total number of species in cell =    1
                        Max number of any one species =    2

            xxxxxxxxxxxxxxxxxxxxxxxxxxxxxxxxxxxxxxxxxxxxxxxxxxxxxxxxxxxx
            x  Element    Atom        Fractional coordinates of atoms  x
            x            Number           u          v          w      x
            x----------------------------------------------------------x
            x  Si           1         0.000000   0.000000   0.000000   x 
            x  Si           2         0.250000   0.250000   0.250000   x 
            xxxxxxxxxxxxxxxxxxxxxxxxxxxxxxxxxxxxxxxxxxxxxxxxxxxxxxxxxxxx


                         No user defined ionic velocities

                           -------------------------------
                                   Details of Species
                           -------------------------------

                               Mass of species in AMU
                                    Si   28.0855000

                          Electric Quadrupole Moment (Barn)
                                    Si    1.0000000 No Isotope Defined

                          Files used for pseudopotentials:
                                    Si Si_00.recpot

                           -------------------------------
                              k-Points For BZ Sampling
                           -------------------------------
                       MP grid size for SCF calculation is  4  4  4
                            with an offset of   0.000  0.000  0.000
                       Number of kpoints used =            10

             +++++++++++++++++++++++++++++++++++++++++++++++++++++++
             +  Number       Fractional coordinates        Weight  +
             +-----------------------------------------------------+
             +     1  -0.375000  -0.125000  -0.375000   0.0937500  +
             +     2  -0.375000   0.375000   0.375000   0.0937500  +
             +     3  -0.125000  -0.375000  -0.125000   0.0937500  +
             +     4  -0.125000   0.375000   0.375000   0.0937500  +
             +     5   0.125000  -0.375000  -0.125000   0.1875000  +
             +     6   0.125000  -0.375000   0.125000   0.0937500  +
             +     7   0.125000  -0.125000  -0.125000   0.0937500  +
             +     8   0.125000   0.125000   0.125000   0.0312500  +
             +     9   0.375000  -0.375000   0.125000   0.1875000  +
             +    10   0.375000   0.375000   0.375000   0.0312500  +
             +++++++++++++++++++++++++++++++++++++++++++++++++++++++

                           -------------------------------
                               Symmetry and Constraints
                           -------------------------------

                      Maximum deviation from symmetry =  0.00000         ANG

                      Number of symmetry operations   =          48
                      Number of ionic constraints     =           3
                      Point group of crystal =    32: Oh, m-3m, 4/m -3 2/m
                      Space group of crystal =   227: Fd-3m, F 4d 2 3 -1d

                    1 rotation    
                 (   1.00000000000   0.00000000000   0.00000000000 )
                 (   0.00000000000   1.00000000000   0.00000000000 )
                 (   0.00000000000   0.00000000000   1.00000000000 )
                    1 displacement
                 (   0.00000000000   0.00000000000  -0.00000000000 )
                      symmetry related atoms: 
             Si:    1    2

                    2 rotation    
                 (   0.00000000000   0.00000000000   1.00000000000 )
                 (   0.00000000000   1.00000000000   0.00000000000 )
                 (  -1.00000000000   0.00000000000   0.00000000000 )
                    2 displacement
                 (   0.25000000000   0.25000000000   0.25000000000 )
                      symmetry related atoms: 
             Si:    2    1

                    3 rotation    
                 (  -1.00000000000   0.00000000000   0.00000000000 )
                 (   0.00000000000   1.00000000000   0.00000000000 )
                 (   0.00000000000   0.00000000000  -1.00000000000 )
                    3 displacement
                 (   0.00000000000   0.00000000000  -0.00000000000 )
                      symmetry related atoms: 
             Si:    1    2

                    4 rotation    
                 (   0.00000000000   0.00000000000  -1.00000000000 )
                 (   0.00000000000   1.00000000000   0.00000000000 )
                 (   1.00000000000   0.00000000000   0.00000000000 )
                    4 displacement
                 (   0.25000000000   0.25000000000   0.25000000000 )
                      symmetry related atoms: 
             Si:    2    1

                    5 rotation    
                 (  -1.00000000000   0.00000000000   0.00000000000 )
                 (   0.00000000000  -1.00000000000   0.00000000000 )
                 (   0.00000000000   0.00000000000   1.00000000000 )
                    5 displacement
                 (   0.00000000000   0.00000000000  -0.00000000000 )
                      symmetry related atoms: 
             Si:    1    2

                    6 rotation    
                 (   0.00000000000   0.00000000000   1.00000000000 )
                 (   0.00000000000  -1.00000000000   0.00000000000 )
                 (   1.00000000000   0.00000000000   0.00000000000 )
                    6 displacement
                 (   0.25000000000   0.25000000000   0.25000000000 )
                      symmetry related atoms: 
             Si:    2    1

                    7 rotation    
                 (   1.00000000000   0.00000000000   0.00000000000 )
                 (   0.00000000000  -1.00000000000   0.00000000000 )
                 (   0.00000000000   0.00000000000  -1.00000000000 )
                    7 displacement
                 (   0.00000000000   0.00000000000  -0.00000000000 )
                      symmetry related atoms: 
             Si:    1    2

                    8 rotation    
                 (   0.00000000000   0.00000000000  -1.00000000000 )
                 (   0.00000000000  -1.00000000000   0.00000000000 )
                 (  -1.00000000000   0.00000000000   0.00000000000 )
                    8 displacement
                 (   0.25000000000   0.25000000000   0.25000000000 )
                      symmetry related atoms: 
             Si:    2    1

                    9 rotation    
                 (   0.00000000000  -1.00000000000   0.00000000000 )
                 (   0.00000000000   0.00000000000   1.00000000000 )
                 (  -1.00000000000   0.00000000000   0.00000000000 )
                    9 displacement
                 (   0.00000000000   0.00000000000  -0.00000000000 )
                      symmetry related atoms: 
             Si:    1    2

                   10 rotation    
                 (  -1.00000000000   0.00000000000   0.00000000000 )
                 (   0.00000000000   0.00000000000   1.00000000000 )
                 (   0.00000000000   1.00000000000   0.00000000000 )
                   10 displacement
                 (   0.25000000000   0.25000000000   0.25000000000 )
                      symmetry related atoms: 
             Si:    2    1

                   11 rotation    
                 (   0.00000000000   1.00000000000   0.00000000000 )
                 (   0.00000000000   0.00000000000   1.00000000000 )
                 (   1.00000000000   0.00000000000   0.00000000000 )
                   11 displacement
                 (   0.00000000000   0.00000000000  -0.00000000000 )
                      symmetry related atoms: 
             Si:    1    2

                   12 rotation    
                 (   1.00000000000   0.00000000000   0.00000000000 )
                 (   0.00000000000   0.00000000000   1.00000000000 )
                 (   0.00000000000  -1.00000000000   0.00000000000 )
                   12 displacement
                 (   0.25000000000   0.25000000000   0.25000000000 )
                      symmetry related atoms: 
             Si:    2    1

                   13 rotation    
                 (   0.00000000000   1.00000000000   0.00000000000 )
                 (   0.00000000000   0.00000000000  -1.00000000000 )
                 (  -1.00000000000   0.00000000000   0.00000000000 )
                   13 displacement
                 (   0.00000000000   0.00000000000  -0.00000000000 )
                      symmetry related atoms: 
             Si:    1    2

                   14 rotation    
                 (  -1.00000000000   0.00000000000   0.00000000000 )
                 (   0.00000000000   0.00000000000  -1.00000000000 )
                 (   0.00000000000  -1.00000000000   0.00000000000 )
                   14 displacement
                 (   0.25000000000   0.25000000000   0.25000000000 )
                      symmetry related atoms: 
             Si:    2    1

                   15 rotation    
                 (   0.00000000000  -1.00000000000   0.00000000000 )
                 (   0.00000000000   0.00000000000  -1.00000000000 )
                 (   1.00000000000   0.00000000000   0.00000000000 )
                   15 displacement
                 (   0.00000000000   0.00000000000  -0.00000000000 )
                      symmetry related atoms: 
             Si:    1    2

                   16 rotation    
                 (   1.00000000000   0.00000000000   0.00000000000 )
                 (   0.00000000000   0.00000000000  -1.00000000000 )
                 (   0.00000000000   1.00000000000   0.00000000000 )
                   16 displacement
                 (   0.25000000000   0.25000000000   0.25000000000 )
                      symmetry related atoms: 
             Si:    2    1

                   17 rotation    
                 (   0.00000000000   0.00000000000  -1.00000000000 )
                 (  -1.00000000000   0.00000000000   0.00000000000 )
                 (   0.00000000000   1.00000000000   0.00000000000 )
                   17 displacement
                 (   0.00000000000   0.00000000000  -0.00000000000 )
                      symmetry related atoms: 
             Si:    1    2

                   18 rotation    
                 (   0.00000000000   1.00000000000   0.00000000000 )
                 (  -1.00000000000   0.00000000000   0.00000000000 )
                 (   0.00000000000   0.00000000000   1.00000000000 )
                   18 displacement
                 (   0.25000000000   0.25000000000   0.25000000000 )
                      symmetry related atoms: 
             Si:    2    1

                   19 rotation    
                 (   0.00000000000   0.00000000000   1.00000000000 )
                 (  -1.00000000000   0.00000000000   0.00000000000 )
                 (   0.00000000000  -1.00000000000   0.00000000000 )
                   19 displacement
                 (   0.00000000000   0.00000000000  -0.00000000000 )
                      symmetry related atoms: 
             Si:    1    2

                   20 rotation    
                 (   0.00000000000  -1.00000000000   0.00000000000 )
                 (  -1.00000000000   0.00000000000   0.00000000000 )
                 (   0.00000000000   0.00000000000  -1.00000000000 )
                   20 displacement
                 (   0.25000000000   0.25000000000   0.25000000000 )
                      symmetry related atoms: 
             Si:    2    1

                   21 rotation    
                 (   0.00000000000   0.00000000000   1.00000000000 )
                 (   1.00000000000   0.00000000000   0.00000000000 )
                 (   0.00000000000   1.00000000000   0.00000000000 )
                   21 displacement
                 (   0.00000000000   0.00000000000  -0.00000000000 )
                      symmetry related atoms: 
             Si:    1    2

                   22 rotation    
                 (   0.00000000000   1.00000000000   0.00000000000 )
                 (   1.00000000000   0.00000000000   0.00000000000 )
                 (   0.00000000000   0.00000000000  -1.00000000000 )
                   22 displacement
                 (   0.25000000000   0.25000000000   0.25000000000 )
                      symmetry related atoms: 
             Si:    2    1

                   23 rotation    
                 (   0.00000000000   0.00000000000  -1.00000000000 )
                 (   1.00000000000   0.00000000000   0.00000000000 )
                 (   0.00000000000  -1.00000000000   0.00000000000 )
                   23 displacement
                 (   0.00000000000   0.00000000000  -0.00000000000 )
                      symmetry related atoms: 
             Si:    1    2

                   24 rotation    
                 (   0.00000000000  -1.00000000000   0.00000000000 )
                 (   1.00000000000   0.00000000000   0.00000000000 )
                 (   0.00000000000   0.00000000000   1.00000000000 )
                   24 displacement
                 (   0.25000000000   0.25000000000   0.25000000000 )
                      symmetry related atoms: 
             Si:    2    1

                   25 rotation    
                 (  -1.00000000000   0.00000000000   0.00000000000 )
                 (   0.00000000000  -1.00000000000   0.00000000000 )
                 (   0.00000000000   0.00000000000  -1.00000000000 )
                   25 displacement
                 (   0.25000000000   0.25000000000   0.25000000000 )
                      symmetry related atoms: 
             Si:    2    1

                   26 rotation    
                 (   0.00000000000   0.00000000000  -1.00000000000 )
                 (   0.00000000000  -1.00000000000   0.00000000000 )
                 (   1.00000000000   0.00000000000   0.00000000000 )
                   26 displacement
                 (   0.00000000000   0.00000000000  -0.00000000000 )
                      symmetry related atoms: 
             Si:    1    2

                   27 rotation    
                 (   1.00000000000   0.00000000000   0.00000000000 )
                 (   0.00000000000  -1.00000000000   0.00000000000 )
                 (   0.00000000000   0.00000000000   1.00000000000 )
                   27 displacement
                 (   0.25000000000   0.25000000000   0.25000000000 )
                      symmetry related atoms: 
             Si:    2    1

                   28 rotation    
                 (   0.00000000000   0.00000000000   1.00000000000 )
                 (   0.00000000000  -1.00000000000   0.00000000000 )
                 (  -1.00000000000   0.00000000000   0.00000000000 )
                   28 displacement
                 (   0.00000000000   0.00000000000  -0.00000000000 )
                      symmetry related atoms: 
             Si:    1    2

                   29 rotation    
                 (   1.00000000000   0.00000000000   0.00000000000 )
                 (   0.00000000000   1.00000000000   0.00000000000 )
                 (   0.00000000000   0.00000000000  -1.00000000000 )
                   29 displacement
                 (   0.25000000000   0.25000000000   0.25000000000 )
                      symmetry related atoms: 
             Si:    2    1

                   30 rotation    
                 (   0.00000000000   0.00000000000  -1.00000000000 )
                 (   0.00000000000   1.00000000000   0.00000000000 )
                 (  -1.00000000000   0.00000000000   0.00000000000 )
                   30 displacement
                 (   0.00000000000   0.00000000000  -0.00000000000 )
                      symmetry related atoms: 
             Si:    1    2

                   31 rotation    
                 (  -1.00000000000   0.00000000000   0.00000000000 )
                 (   0.00000000000   1.00000000000   0.00000000000 )
                 (   0.00000000000   0.00000000000   1.00000000000 )
                   31 displacement
                 (   0.25000000000   0.25000000000   0.25000000000 )
                      symmetry related atoms: 
             Si:    2    1

                   32 rotation    
                 (   0.00000000000   0.00000000000   1.00000000000 )
                 (   0.00000000000   1.00000000000   0.00000000000 )
                 (   1.00000000000   0.00000000000   0.00000000000 )
                   32 displacement
                 (   0.00000000000   0.00000000000  -0.00000000000 )
                      symmetry related atoms: 
             Si:    1    2

                   33 rotation    
                 (   0.00000000000   1.00000000000   0.00000000000 )
                 (   0.00000000000   0.00000000000  -1.00000000000 )
                 (   1.00000000000   0.00000000000   0.00000000000 )
                   33 displacement
                 (   0.25000000000   0.25000000000   0.25000000000 )
                      symmetry related atoms: 
             Si:    2    1

                   34 rotation    
                 (   1.00000000000   0.00000000000   0.00000000000 )
                 (   0.00000000000   0.00000000000  -1.00000000000 )
                 (   0.00000000000  -1.00000000000   0.00000000000 )
                   34 displacement
                 (   0.00000000000   0.00000000000  -0.00000000000 )
                      symmetry related atoms: 
             Si:    1    2

                   35 rotation    
                 (   0.00000000000  -1.00000000000   0.00000000000 )
                 (   0.00000000000   0.00000000000  -1.00000000000 )
                 (  -1.00000000000   0.00000000000   0.00000000000 )
                   35 displacement
                 (   0.25000000000   0.25000000000   0.25000000000 )
                      symmetry related atoms: 
             Si:    2    1

                   36 rotation    
                 (  -1.00000000000   0.00000000000   0.00000000000 )
                 (   0.00000000000   0.00000000000  -1.00000000000 )
                 (   0.00000000000   1.00000000000   0.00000000000 )
                   36 displacement
                 (   0.00000000000   0.00000000000  -0.00000000000 )
                      symmetry related atoms: 
             Si:    1    2

                   37 rotation    
                 (   0.00000000000  -1.00000000000   0.00000000000 )
                 (   0.00000000000   0.00000000000   1.00000000000 )
                 (   1.00000000000   0.00000000000   0.00000000000 )
                   37 displacement
                 (   0.25000000000   0.25000000000   0.25000000000 )
                      symmetry related atoms: 
             Si:    2    1

                   38 rotation    
                 (   1.00000000000   0.00000000000   0.00000000000 )
                 (   0.00000000000   0.00000000000   1.00000000000 )
                 (   0.00000000000   1.00000000000   0.00000000000 )
                   38 displacement
                 (   0.00000000000   0.00000000000  -0.00000000000 )
                      symmetry related atoms: 
             Si:    1    2

                   39 rotation    
                 (   0.00000000000   1.00000000000   0.00000000000 )
                 (   0.00000000000   0.00000000000   1.00000000000 )
                 (  -1.00000000000   0.00000000000   0.00000000000 )
                   39 displacement
                 (   0.25000000000   0.25000000000   0.25000000000 )
                      symmetry related atoms: 
             Si:    2    1

                   40 rotation    
                 (  -1.00000000000   0.00000000000   0.00000000000 )
                 (   0.00000000000   0.00000000000   1.00000000000 )
                 (   0.00000000000  -1.00000000000   0.00000000000 )
                   40 displacement
                 (   0.00000000000   0.00000000000  -0.00000000000 )
                      symmetry related atoms: 
             Si:    1    2

                   41 rotation    
                 (   0.00000000000   0.00000000000   1.00000000000 )
                 (   1.00000000000   0.00000000000   0.00000000000 )
                 (   0.00000000000  -1.00000000000   0.00000000000 )
                   41 displacement
                 (   0.25000000000   0.25000000000   0.25000000000 )
                      symmetry related atoms: 
             Si:    2    1

                   42 rotation    
                 (   0.00000000000  -1.00000000000   0.00000000000 )
                 (   1.00000000000   0.00000000000   0.00000000000 )
                 (   0.00000000000   0.00000000000  -1.00000000000 )
                   42 displacement
                 (   0.00000000000   0.00000000000  -0.00000000000 )
                      symmetry related atoms: 
             Si:    1    2

                   43 rotation    
                 (   0.00000000000   0.00000000000  -1.00000000000 )
                 (   1.00000000000   0.00000000000   0.00000000000 )
                 (   0.00000000000   1.00000000000   0.00000000000 )
                   43 displacement
                 (   0.25000000000   0.25000000000   0.25000000000 )
                      symmetry related atoms: 
             Si:    2    1

                   44 rotation    
                 (   0.00000000000   1.00000000000   0.00000000000 )
                 (   1.00000000000   0.00000000000   0.00000000000 )
                 (   0.00000000000   0.00000000000   1.00000000000 )
                   44 displacement
                 (   0.00000000000   0.00000000000  -0.00000000000 )
                      symmetry related atoms: 
             Si:    1    2

                   45 rotation    
                 (   0.00000000000   0.00000000000  -1.00000000000 )
                 (  -1.00000000000   0.00000000000   0.00000000000 )
                 (   0.00000000000  -1.00000000000   0.00000000000 )
                   45 displacement
                 (   0.25000000000   0.25000000000   0.25000000000 )
                      symmetry related atoms: 
             Si:    2    1

                   46 rotation    
                 (   0.00000000000  -1.00000000000   0.00000000000 )
                 (  -1.00000000000   0.00000000000   0.00000000000 )
                 (   0.00000000000   0.00000000000   1.00000000000 )
                   46 displacement
                 (   0.00000000000   0.00000000000  -0.00000000000 )
                      symmetry related atoms: 
             Si:    1    2

                   47 rotation    
                 (   0.00000000000   0.00000000000   1.00000000000 )
                 (  -1.00000000000   0.00000000000   0.00000000000 )
                 (   0.00000000000   1.00000000000   0.00000000000 )
                   47 displacement
                 (   0.25000000000   0.25000000000   0.25000000000 )
                      symmetry related atoms: 
             Si:    2    1

                   48 rotation    
                 (   0.00000000000   1.00000000000   0.00000000000 )
                 (  -1.00000000000   0.00000000000   0.00000000000 )
                 (   0.00000000000   0.00000000000  -1.00000000000 )
                   48 displacement
                 (   0.00000000000   0.00000000000  -0.00000000000 )
                      symmetry related atoms: 
             Si:    1    2


                         Centre of mass is constrained

            xxxxxxxxxxxxxxxxxxxxxxxxxxxxxxxxxxxxxxxxxxxxxxxxxxxxxxxxx....
            x  Species  atom   co-ordinate  constraints.....         
            x--------------------------------------------------------....
            x Si           1       x        51196.7345      0.0000      0.0000
            x Si           1       y            0.0000  51196.7345      0.0000
            x Si           1       z            0.0000      0.0000  51196.7345
            x Si           2       x        51196.7345      0.0000      0.0000
            x Si           2       y            0.0000  51196.7345      0.0000
            x Si           2       z            0.0000      0.0000  51196.7345
            xxxxxxxxxxxxxxxxxxxxxxxxxxxxxxxxxxxxxxxxxxxxxxxxxxxxxxxxx....

                         Number of cell constraints= 5
                         Cell constraints are:  1 1 1 0 0 0

                         External pressure/stress (GPa)
                          0.00000   0.00000   0.00000
                                    0.00000   0.00000
                                              0.00000
  
+---------------- MEMORY AND SCRATCH DISK ESTIMATES PER PROCESS --------------+
|                                                     Memory          Disk    |
| Baseline code, static data and system overhead        0.0 MB         0.0 MB |
| BLAS internal memory storage                          0.0 MB         0.0 MB |
| Model and support data                                3.3 MB         0.0 MB |
| Non-local exact exchange data                        87.1 MB         0.0 MB |
| Electronic energy minimisation requirements           2.2 MB         0.0 MB |
| Force calculation requirements                        0.7 MB         0.0 MB |
|                                               ----------------------------- |
| Approx. total storage required per process           89.3 MB         0.0 MB |
|                                                                             |
| Requirements will fluctuate during execution and may exceed these estimates |
+-----------------------------------------------------------------------------+
 
Init
Total energy                     =       184.06749988307618082 eV
------------------------------------------------------------------------ <-- SCF
SCF loop      Energy                           Energy gain       Timer   <-- SCF
                                               per atom          (sec)   <-- SCF
------------------------------------------------------------------------ <-- SCF
Initial   1.84067500E+002                                          8.89  <-- SCF
+------------------- WAVEFUNCTION LINE MINIMISATION --------------------+<- line
| Initial energy =  1.840675E+002 eV; initial dE/dstep = -2.900E+002 eV |<- line
|                                                                       |<- line
|            1st step    2nd step    3rd step    4th step    5th step   |<- line
+--------+--------------------------------------------------------------+<- line
| step   |  1.500E+00   1.723E+00* unnecessary unnecessary unnecessary  |<- line
| gain   |  2.456E+02   2.479E+02* unnecessary unnecessary unnecessary  |<- line
+--------+--------------------------------------------------------------+<- line
 * indicates the final, accepted state (should have the lowest energy)          
 
+------------------- WAVEFUNCTION LINE MINIMISATION --------------------+<- line
| Initial energy = -6.387562E+001 eV; initial dE/dstep = -1.353E+002 eV |<- line
|                                                                       |<- line
|            1st step    2nd step    3rd step    4th step    5th step   |<- line
+--------+--------------------------------------------------------------+<- line
| step   |  1.500E+00   1.153E+00* unnecessary unnecessary unnecessary  |<- line
| gain   |  7.097E+01   7.583E+01* unnecessary unnecessary unnecessary  |<- line
+--------+--------------------------------------------------------------+<- line
 * indicates the final, accepted state (should have the lowest energy)          
 
+------------------- WAVEFUNCTION LINE MINIMISATION --------------------+<- line
| Initial energy = -1.397020E+002 eV; initial dE/dstep = -7.038E+001 eV |<- line
|                                                                       |<- line
|            1st step    2nd step    3rd step    4th step    5th step   |<- line
+--------+--------------------------------------------------------------+<- line
| step   |  1.500E+00   9.789E-01* unnecessary unnecessary unnecessary  |<- line
| gain   |  2.469E+01   3.299E+01* unnecessary unnecessary unnecessary  |<- line
+--------+--------------------------------------------------------------+<- line
 * indicates the final, accepted state (should have the lowest energy)          
 
+------------------- WAVEFUNCTION LINE MINIMISATION --------------------+<- line
| Initial energy = -1.726897E+002 eV; initial dE/dstep = -3.881E+001 eV |<- line
|                                                                       |<- line
|            1st step    2nd step    3rd step    4th step    5th step   |<- line
+--------+--------------------------------------------------------------+<- line
| step   |  1.500E+00   9.059E-01* unnecessary unnecessary unnecessary  |<- line
| gain   |  1.002E+01   1.693E+01* unnecessary unnecessary unnecessary  |<- line
+--------+--------------------------------------------------------------+<- line
 * indicates the final, accepted state (should have the lowest energy)          
 
+------------------- WAVEFUNCTION LINE MINIMISATION --------------------+<- line
| Initial energy = -1.896221E+002 eV; initial dE/dstep = -2.300E+001 eV |<- line
|                                                                       |<- line
|            1st step    2nd step    3rd step    4th step    5th step   |<- line
+--------+--------------------------------------------------------------+<- line
| step   |  1.500E+00   8.027E-01* unnecessary unnecessary unnecessary  |<- line
| gain   |  2.265E+00   8.966E+00* unnecessary unnecessary unnecessary  |<- line
+--------+--------------------------------------------------------------+<- line
 * indicates the final, accepted state (should have the lowest energy)          
 
      1  -1.98588023E+002                    1.91327761E+002      47.05  <-- SCF
+------------------- WAVEFUNCTION LINE MINIMISATION --------------------+<- line
| Initial energy = -1.985880E+002 eV; initial dE/dstep = -4.853E+000 eV |<- line
|                                                                       |<- line
|            1st step    2nd step    3rd step    4th step    5th step   |<- line
+--------+--------------------------------------------------------------+<- line
| step   |  1.500E+00   4.385E+00* unnecessary unnecessary unnecessary  |<- line
| gain   |  6.034E+00   9.827E+00* unnecessary unnecessary unnecessary  |<- line
+--------+--------------------------------------------------------------+<- line
 * indicates the final, accepted state (should have the lowest energy)          
 
+------------------- WAVEFUNCTION LINE MINIMISATION --------------------+<- line
| Initial energy = -2.084151E+002 eV; initial dE/dstep = -1.682E+000 eV |<- line
|                                                                       |<- line
|            1st step    2nd step    3rd step    4th step    5th step   |<- line
+--------+--------------------------------------------------------------+<- line
| step   |  1.500E+00   4.200E+00* unnecessary unnecessary unnecessary  |<- line
| gain   |  2.072E+00   3.331E+00* unnecessary unnecessary unnecessary  |<- line
+--------+--------------------------------------------------------------+<- line
 * indicates the final, accepted state (should have the lowest energy)          
 
+------------------- WAVEFUNCTION LINE MINIMISATION --------------------+<- line
| Initial energy = -2.117457E+002 eV; initial dE/dstep = -8.646E-001 eV |<- line
|                                                                       |<- line
|            1st step    2nd step    3rd step    4th step    5th step   |<- line
+--------+--------------------------------------------------------------+<- line
| step   |  1.500E+00   3.564E+00* unnecessary unnecessary unnecessary  |<- line
| gain   |  1.024E+00   1.501E+00* unnecessary unnecessary unnecessary  |<- line
+--------+--------------------------------------------------------------+<- line
 * indicates the final, accepted state (should have the lowest energy)          
 
+------------------- WAVEFUNCTION LINE MINIMISATION --------------------+<- line
| Initial energy = -2.132472E+002 eV; initial dE/dstep = -3.925E-001 eV |<- line
|                                                                       |<- line
|            1st step    2nd step    3rd step    4th step    5th step   |<- line
+--------+--------------------------------------------------------------+<- line
| step   |  1.500E+00   3.461E+00* unnecessary unnecessary unnecessary  |<- line
| gain   |  4.612E-01   6.652E-01* unnecessary unnecessary unnecessary  |<- line
+--------+--------------------------------------------------------------+<- line
 * indicates the final, accepted state (should have the lowest energy)          
 
+------------------- WAVEFUNCTION LINE MINIMISATION --------------------+<- line
| Initial energy = -2.139124E+002 eV; initial dE/dstep = -1.938E-001 eV |<- line
|                                                                       |<- line
|            1st step    2nd step    3rd step    4th step    5th step   |<- line
+--------+--------------------------------------------------------------+<- line
| step   |  1.500E+00   3.707E+00* unnecessary unnecessary unnecessary  |<- line
| gain   |  2.319E-01   3.437E-01* unnecessary unnecessary unnecessary  |<- line
+--------+--------------------------------------------------------------+<- line
 * indicates the final, accepted state (should have the lowest energy)          
 
      2  -2.14256114E+002                    7.83404566E+000      85.17  <-- SCF
+------------------- WAVEFUNCTION LINE MINIMISATION --------------------+<- line
| Initial energy = -2.142561E+002 eV; initial dE/dstep = -9.302E-002 eV |<- line
|                                                                       |<- line
|            1st step    2nd step    3rd step    4th step    5th step   |<- line
+--------+--------------------------------------------------------------+<- line
| step   |  1.500E+00   3.884E+00* unnecessary unnecessary unnecessary  |<- line
| gain   |  1.126E-01   1.799E-01* unnecessary unnecessary unnecessary  |<- line
+--------+--------------------------------------------------------------+<- line
 * indicates the final, accepted state (should have the lowest energy)          
 
+------------------- WAVEFUNCTION LINE MINIMISATION --------------------+<- line
| Initial energy = -2.144360E+002 eV; initial dE/dstep = -4.197E-002 eV |<- line
|                                                                       |<- line
|            1st step    2nd step    3rd step    4th step    5th step   |<- line
+--------+--------------------------------------------------------------+<- line
| step   |  1.500E+00   3.275E+00* unnecessary unnecessary unnecessary  |<- line
| gain   |  4.855E-02   6.827E-02* unnecessary unnecessary unnecessary  |<- line
+--------+--------------------------------------------------------------+<- line
 * indicates the final, accepted state (should have the lowest energy)          
 
+------------------- WAVEFUNCTION LINE MINIMISATION --------------------+<- line
| Initial energy = -2.145042E+002 eV; initial dE/dstep = -1.485E-002 eV |<- line
|                                                                       |<- line
|            1st step    2nd step    3rd step    4th step    5th step   |<- line
+--------+--------------------------------------------------------------+<- line
| step   |  1.500E+00   3.518E+00* unnecessary unnecessary unnecessary  |<- line
| gain   |  1.753E-02   2.587E-02* unnecessary unnecessary unnecessary  |<- line
+--------+--------------------------------------------------------------+<- line
 * indicates the final, accepted state (should have the lowest energy)          
 
+------------------- WAVEFUNCTION LINE MINIMISATION --------------------+<- line
| Initial energy = -2.145301E+002 eV; initial dE/dstep = -4.676E-003 eV |<- line
|                                                                       |<- line
|            1st step    2nd step    3rd step    4th step    5th step   |<- line
+--------+--------------------------------------------------------------+<- line
| step   |  1.500E+00   3.125E+00* unnecessary unnecessary unnecessary  |<- line
| gain   |  5.331E-03   7.246E-03* unnecessary unnecessary unnecessary  |<- line
+--------+--------------------------------------------------------------+<- line
 * indicates the final, accepted state (should have the lowest energy)          
 
+------------------- WAVEFUNCTION LINE MINIMISATION --------------------+<- line
| Initial energy = -2.145374E+002 eV; initial dE/dstep = -1.156E-003 eV |<- line
|                                                                       |<- line
|            1st step    2nd step    3rd step    4th step    5th step   |<- line
+--------+--------------------------------------------------------------+<- line
| step   |  1.500E+00   3.244E+00* unnecessary unnecessary unnecessary  |<- line
| gain   |  1.333E-03   1.858E-03* unnecessary unnecessary unnecessary  |<- line
+--------+--------------------------------------------------------------+<- line
 * indicates the final, accepted state (should have the lowest energy)          
 
      3  -2.14539208E+002                    1.41546983E-001     123.32  <-- SCF
+------------------- WAVEFUNCTION LINE MINIMISATION --------------------+<- line
| Initial energy = -2.145392E+002 eV; initial dE/dstep = -2.278E-004 eV |<- line
|                                                                       |<- line
|            1st step    2nd step    3rd step    4th step    5th step   |<- line
+--------+--------------------------------------------------------------+<- line
| step   |  1.500E+00   3.031E+00* unnecessary unnecessary unnecessary  |<- line
| gain   |  2.571E-04   3.456E-04* unnecessary unnecessary unnecessary  |<- line
+--------+--------------------------------------------------------------+<- line
 * indicates the final, accepted state (should have the lowest energy)          
 
+------------------- WAVEFUNCTION LINE MINIMISATION --------------------+<- line
| Initial energy = -2.145396E+002 eV; initial dE/dstep = -8.396E-005 eV |<- line
|                                                                       |<- line
|            1st step    2nd step    3rd step    4th step    5th step   |<- line
+--------+--------------------------------------------------------------+<- line
| step   |  1.500E+00   3.858E+00* unnecessary unnecessary unnecessary  |<- line
| gain   |  1.015E-04   1.681E-04* unnecessary unnecessary unnecessary  |<- line
+--------+--------------------------------------------------------------+<- line
 * indicates the final, accepted state (should have the lowest energy)          
 
+------------------- WAVEFUNCTION LINE MINIMISATION --------------------+<- line
| Initial energy = -2.145397E+002 eV; initial dE/dstep = -2.841E-005 eV |<- line
|                                                                       |<- line
|            1st step    2nd step    3rd step    4th step    5th step   |<- line
+--------+--------------------------------------------------------------+<- line
| step   |  1.500E+00   3.553E+00* unnecessary unnecessary unnecessary  |<- line
| gain   |  3.362E-05   5.159E-05* unnecessary unnecessary unnecessary  |<- line
+--------+--------------------------------------------------------------+<- line
 * indicates the final, accepted state (should have the lowest energy)          
 
+------------------- WAVEFUNCTION LINE MINIMISATION --------------------+<- line
| Initial energy = -2.145398E+002 eV; initial dE/dstep = -8.524E-006 eV |<- line
|                                                                       |<- line
|            1st step    2nd step    3rd step    4th step    5th step   |<- line
+--------+--------------------------------------------------------------+<- line
| step   |  1.500E+00   3.673E+00* unnecessary unnecessary unnecessary  |<- line
| gain   |  1.018E-05   1.499E-05* unnecessary unnecessary unnecessary  |<- line
+--------+--------------------------------------------------------------+<- line
 * indicates the final, accepted state (should have the lowest energy)          
 
+------------------- WAVEFUNCTION LINE MINIMISATION --------------------+<- line
| Initial energy = -2.145398E+002 eV; initial dE/dstep = -3.246E-006 eV |<- line
|                                                                       |<- line
|            1st step    2nd step    3rd step    4th step    5th step   |<- line
+--------+--------------------------------------------------------------+<- line
| step   |  1.500E+00   3.081E+00* unnecessary unnecessary unnecessary  |<- line
| gain   |  3.684E-06   4.882E-06* unnecessary unnecessary unnecessary  |<- line
+--------+--------------------------------------------------------------+<- line
 * indicates the final, accepted state (should have the lowest energy)          
 
      4  -2.14539793E+002                    2.92586601E-004     162.02  <-- SCF
+------------------- WAVEFUNCTION LINE MINIMISATION --------------------+<- line
| Initial energy = -2.145398E+002 eV; initial dE/dstep = -1.112E-006 eV |<- line
|                                                                       |<- line
|            1st step    2nd step    3rd step    4th step    5th step   |<- line
+--------+--------------------------------------------------------------+<- line
| step   |  1.500E+00   2.601E+00* unnecessary unnecessary unnecessary  |<- line
| gain   |  1.187E-06   1.507E-06* unnecessary unnecessary unnecessary  |<- line
+--------+--------------------------------------------------------------+<- line
 * indicates the final, accepted state (should have the lowest energy)          
 
+------------------- WAVEFUNCTION LINE MINIMISATION --------------------+<- line
| Initial energy = -2.145398E+002 eV; initial dE/dstep = -3.943E-007 eV |<- line
|                                                                       |<- line
|            1st step    2nd step    3rd step    4th step    5th step   |<- line
+--------+--------------------------------------------------------------+<- line
| step   |  1.500E+00   2.849E+00* unnecessary unnecessary unnecessary  |<- line
| gain   |  4.358E-07   6.362E-07* unnecessary unnecessary unnecessary  |<- line
+--------+--------------------------------------------------------------+<- line
 * indicates the final, accepted state (should have the lowest energy)          
 
+------------------- WAVEFUNCTION LINE MINIMISATION --------------------+<- line
| Initial energy = -2.145398E+002 eV; initial dE/dstep = -1.545E-007 eV |<- line
|                                                                       |<- line
|            1st step    2nd step    3rd step    4th step    5th step   |<- line
+--------+--------------------------------------------------------------+<- line
| step   |  1.500E+00   5.729E+00* unnecessary unnecessary unnecessary  |<- line
| gain   |  2.014E-07   3.769E-07* unnecessary unnecessary unnecessary  |<- line
+--------+--------------------------------------------------------------+<- line
 * indicates the final, accepted state (should have the lowest energy)          
 
+------------------- WAVEFUNCTION LINE MINIMISATION --------------------+<- line
| Initial energy = -2.145398E+002 eV; initial dE/dstep = -8.837E-008 eV |<- line
|                                                                       |<- line
|            1st step    2nd step    3rd step    4th step    5th step   |<- line
+--------+--------------------------------------------------------------+<- line
| step   |  1.500E+00*  1.264E+01  unnecessary unnecessary unnecessary  |<- line
| gain   |  1.247E-07* -1.694E-06  unnecessary unnecessary unnecessary  |<- line
+--------+--------------------------------------------------------------+<- line
 * indicates the final, accepted state (should have the lowest energy)          
 
+------------------- WAVEFUNCTION LINE MINIMISATION --------------------+<- line
| Initial energy = -2.145398E+002 eV; initial dE/dstep = -7.069E-008 eV |<- line
|                                                                       |<- line
|            1st step    2nd step    3rd step    4th step    5th step   |<- line
+--------+--------------------------------------------------------------+<- line
| step   |  1.500E+00*  4.215E+00  unnecessary unnecessary unnecessary  |<- line
| gain   |  8.717E-08*  7.581E-09  unnecessary unnecessary unnecessary  |<- line
+--------+--------------------------------------------------------------+<- line
 * indicates the final, accepted state (should have the lowest energy)          
 
      5  -2.14539796E+002                    1.36608821E-006     204.11  <-- SCF
+------------------- WAVEFUNCTION LINE MINIMISATION --------------------+<- line
| Initial energy = -2.145398E+002 eV; initial dE/dstep = -1.706E-008 eV |<- line
|                                                                       |<- line
|            1st step    2nd step    3rd step    4th step    5th step   |<- line
+--------+--------------------------------------------------------------+<- line
| step   |  1.500E+00   1.602E+00* unnecessary unnecessary unnecessary  |<- line
| gain   |  1.361E-08   1.420E-08* unnecessary unnecessary unnecessary  |<- line
+--------+--------------------------------------------------------------+<- line
 * indicates the final, accepted state (should have the lowest energy)          
 
+------------------- WAVEFUNCTION LINE MINIMISATION --------------------+<- line
| Initial energy = -2.145398E+002 eV; initial dE/dstep = -1.338E-008 eV |<- line
|                                                                       |<- line
|            1st step    2nd step    3rd step    4th step    5th step   |<- line
+--------+--------------------------------------------------------------+<- line
| step   |  1.500E+00*  1.279E+00  unnecessary unnecessary unnecessary  |<- line
| gain   |  8.297E-09*  7.556E-09  unnecessary unnecessary unnecessary  |<- line
+--------+--------------------------------------------------------------+<- line
 * indicates the final, accepted state (should have the lowest energy)          
 
+------------------- WAVEFUNCTION LINE MINIMISATION --------------------+<- line
| Initial energy = -2.145398E+002 eV; initial dE/dstep = -9.353E-009 eV |<- line
|                                                                       |<- line
|            1st step    2nd step    3rd step    4th step    5th step   |<- line
+--------+--------------------------------------------------------------+<- line
| step   |  1.500E+00*  1.019E+00  unnecessary unnecessary unnecessary  |<- line
| gain   |  3.707E-09*  3.177E-09  unnecessary unnecessary unnecessary  |<- line
+--------+--------------------------------------------------------------+<- line
 * indicates the final, accepted state (should have the lowest energy)          
 
+------------------- WAVEFUNCTION LINE MINIMISATION --------------------+<- line
| Initial energy = -2.145398E+002 eV; initial dE/dstep = -4.076E-009 eV |<- line
|                                                                       |<- line
|            1st step    2nd step    3rd step    4th step    5th step   |<- line
+--------+--------------------------------------------------------------+<- line
| step   |  1.500E+00   6.352E-01   2.664E-01* unnecessary unnecessary  |<- line
| gain   | -1.104E-09  -1.136E-10   1.547E-11* unnecessary unnecessary  |<- line
+--------+--------------------------------------------------------------+<- line
 * indicates the final, accepted state (should have the lowest energy)          
 
line_minimisation: wavefunction *unchanged*
+------------------- WAVEFUNCTION LINE MINIMISATION --------------------+<- line
| Initial energy = -2.145398E+002 eV; initial dE/dstep = -4.756E-009 eV |<- line
|                                                                       |<- line
|            1st step    2nd step    3rd step    4th step    5th step   |<- line
+--------+--------------------------------------------------------------+<- line
| step   |  1.500E+00   5.358E-01   1.966E-01   7.353E-02  unnecessary  |<- line
| gain   | -2.852E-09  -4.849E-10  -1.090E-10  -3.171E-11  unnecessary  |<- line
+--------+--------------------------------------------------------------+<- line
 * indicates the final, accepted state (should have the lowest energy)          
 
      6  -2.14539796E+002                    1.31084980E-008     252.58  <-- SCF
------------------------------------------------------------------------ <-- SCF
Total energy has converged after 6 SCF iterations.
 
Integrated Spin Density     =    0.444523E-16 hbar/2                        
Integrated |Spin Density|   =    0.504490E-04 hbar/2                        
 
Final energy =  -214.5397961070     eV
(energy not corrected for finite basis set)
 
Have a nice day.

Writing analysis data to Si2.castep_bin

Writing model to Si2.check
Fermi energy is +inf, since nelectrons = band_degeneracy*total_nbands
Initialising basis set.

Standard grid dimensions:  16  16  16
Fine grid dimensions:      16  16  16

Plane wave load balancing: max    265 min    242 average    252
True cut-off energy of basis :   7.343
 Reassigning basis set.
True cut-off energy of basis :   7.343
  
+---------------- MEMORY AND SCRATCH DISK ESTIMATES PER PROCESS --------------+
|                                                     Memory          Disk    |
| Baseline code, static data and system overhead        0.0 MB         0.0 MB |
| BLAS internal memory storage                          0.0 MB         0.0 MB |
| Model and support data                                5.7 MB         0.0 MB |
| Non-local exact exchange data                       140.0 MB         0.0 MB |
| Band structure calculation requirements              16.2 MB         0.0 MB |
| Force calculation requirements                        0.7 MB         0.0 MB |
|                                               ----------------------------- |
| Approx. total storage required per process          156.2 MB         0.0 MB |
|                                                                             |
| Requirements will fluctuate during execution and may exceed these estimates |
+-----------------------------------------------------------------------------+
  =====================================================================
  +  Fermi energy for spin  up  electrons is:    -0.10250 eV          +
  +  Fermi energy for spin down electrons is:    -0.10250 eV          +
  +                                                                   +
  +       B A N D   S T R U C T U R E   C A L C U L A T I O N         +
  +      (General k-point calculation - complex wavefunctions)        +
  +                                                                   +
  + ================================================================= +
  +                                                                   +
  +     Band Structure Calculation: Progress report on root process   +
  +                                                                   +
  +   There are   44 BS k-points. Root process contains   44 of them. +
  +                                                                   +
|     1  |   25  |  3.186194E+01  -7.862706E+00 |   3.9725E+01     X--  |<- line
|     2  |   25  |  3.596519E+01  -7.863366E+00 |   4.3829E+01     X--  |<- line
|     3  |   25  |  4.003534E+01  -3.609312E+00 |   4.3645E+01     X--  |<- line
|     4  |   25  |  4.209117E+01  -3.605442E+00 |   4.5697E+01     X--  |<- line
|     5  |   25  |  4.578857E+01   6.057762E+00 |   3.9731E+01     X--  |<- line
|     6  |   25  |  4.735925E+01   6.077210E+00 |   4.1282E+01     X--  |<- line
|     7  |   25  |  5.222717E+01   6.945982E+00 |   4.5281E+01     X--  |<- line
|     8  |   25  |  5.287301E+01   6.953260E+00 |   4.5920E+01     XX-  |<- line
|     9  |   25  |  5.513120E+01   1.285153E+01 |   4.2280E+01     X--  |<- line
|    10  |   25  |  5.988439E+01   1.284923E+01 |   4.7035E+01     X--  |<- line
|    11  |   25  |  5.718000E+01   1.541490E+01 |   4.1765E+01     X--  |<- line
|    12  |   25  |  6.159148E+01   1.541522E+01 |   4.6176E+01     X--  |<- line
|    13  |   25  |  6.307657E+01   1.902156E+01 |   4.4055E+01     X--  |<- line
|    14  |   25  |  6.549276E+01   1.901853E+01 |   4.6474E+01     X--  |<- line
  +         BS Iteration:   1 of (up to)   60, Time:    15.78s.       +
|     1  |    3  | -7.869599E+00  -7.869611E+00 |   1.1874E-05     -X-  |<- line
|     2  |    3  | -7.856494E+00  -7.856507E+00 |   1.3153E-05     -X-  |<- line
|     3  |    5  | -3.614394E+00  -3.617109E+00 |   2.7148E-03     -X-  |<- line
|     4  |    5  | -3.604550E+00  -3.606290E+00 |   1.7398E-03     -X-  |<- line
|     5  |    4  |  6.056366E+00   6.056073E+00 |   2.9282E-04     -X-  |<- line
|     6  |    4  |  6.077422E+00   6.077135E+00 |   2.8712E-04     -X-  |<- line
|     7  |    2  |  6.943894E+00   6.943888E+00 |   5.9640E-06     -X-  |<- line
|     8  |    2  |  6.957030E+00   6.957028E+00 |   2.1155E-06     -X-  |<- line
|     9  |    4  |  1.284828E+01   1.284817E+01 |   1.1450E-04     -X-  |<- line
|    10  |    4  |  1.285484E+01   1.285476E+01 |   7.7931E-05     -X-  |<- line
|    11  |    5  |  1.541131E+01   1.541120E+01 |   1.0822E-04     -X-  |<- line
|    12  |    5  |  1.541927E+01   1.541917E+01 |   9.2004E-05     -X-  |<- line
|    13  |    7  |  1.901524E+01   1.901496E+01 |   2.8319E-04     -X-  |<- line
|    14  |    7  |  1.902576E+01   1.902557E+01 |   1.8538E-04     -X-  |<- line
  +         BS Iteration:   2 of (up to)   60, Time:     2.70s.       +
|     1  |    1  | -7.869611E+00  -7.869611E+00 |   1.2305E-08     -X-  |<- line
|     2  |    1  | -7.856507E+00  -7.856507E+00 |   1.6544E-08     -X-  |<- line
|     3  |    1  | -3.617144E+00  -3.617144E+00 |   7.9911E-09     -X-  |<- line
|     4  |    1  | -3.606255E+00  -3.606255E+00 |   6.2144E-09     -X-  |<- line
|     5  |    1  |  6.056073E+00   6.056073E+00 |   1.6998E-08     -X-  |<- line
|     6  |    1  |  6.077135E+00   6.077135E+00 |   1.9342E-08     -X-  |<- line
|     7  |    1  |  6.943888E+00   6.943888E+00 |   1.0749E-07     -X-  |<- line
|     8  |    1  |  6.957028E+00   6.957028E+00 |   3.5555E-08     -X-  |<- line
|     9  |    1  |  1.284816E+01   1.284816E+01 |   4.8005E-08     -X-  |<- line
|    10  |    1  |  1.285477E+01   1.285477E+01 |   3.2434E-08     -X-  |<- line
|    11  |    1  |  1.541120E+01   1.541120E+01 |   2.1367E-08     -X-  |<- line
|    12  |    1  |  1.541917E+01   1.541917E+01 |   1.2583E-08     -X-  |<- line
|    13  |    1  |  1.901495E+01   1.901495E+01 |   2.3511E-08     -X-  |<- line
|    14  |    1  |  1.902558E+01   1.902558E+01 |   1.4381E-08     -X-  |<- line
  +         BS Iteration:   3 of (up to)   60, Time:     0.63s.       +
  +         BS Iteration:   4 of (up to)   60, Time:     0.00s.       +
  +   Spin= 1 of  2, K-point=   1 of   44 completed, Time:    19.74s. +
|     1  |   25  |  2.798469E+01  -8.233948E+00 |   3.6219E+01     X--  |<- line
|     2  |   25  |  3.116097E+01  -7.386645E+00 |   3.8548E+01     X--  |<- line
|     3  |   25  |  3.866146E+01  -3.779593E+00 |   4.2441E+01     X--  |<- line
|     4  |   24  |  3.761329E+01  -3.281337E+00 |   4.0895E+01     -X-  |<- line
|     5  |   25  |  4.428717E+01   5.721799E+00 |   3.8565E+01     X--  |<- line
|     6  |   25  |  4.526383E+01   6.076416E+00 |   3.9187E+01     X--  |<- line
|     7  |   25  |  4.441726E+01   6.940110E+00 |   3.7477E+01     X--  |<- line
|     8  |   21  |  5.017583E+01   7.383516E+00 |   4.2792E+01     -X-  |<- line
|     9  |   25  |  5.061136E+01   1.200785E+01 |   3.8604E+01     X--  |<- line
|    10  |   25  |  5.274441E+01   1.330972E+01 |   3.9435E+01     X--  |<- line
|    11  |   25  |  5.787868E+01   1.490566E+01 |   4.2973E+01     X--  |<- line
|    12  |   25  |  6.028939E+01   1.642524E+01 |   4.3864E+01     X--  |<- line
|    13  |   25  |  5.976960E+01   1.815043E+01 |   4.1619E+01     X--  |<- line
|    14  |   25  |  6.555730E+01   1.960862E+01 |   4.5949E+01     X--  |<- line
  +         BS Iteration:   1 of (up to)   60, Time:    15.55s.       +
|     1  |    3  | -8.233968E+00  -8.233977E+00 |   9.0722E-06     -X-  |<- line
|     2  |    5  | -7.433552E+00  -7.442721E+00 |   9.1693E-03     -X-  |<- line
|     3  |    5  | -3.806337E+00  -3.808930E+00 |   2.5925E-03     -X-  |<- line
|     4  |    4  | -3.246174E+00  -3.246318E+00 |   1.4352E-04     -X-  |<- line
|     5  |    5  |  5.703247E+00   5.700690E+00 |   2.5570E-03     -X-  |<- line
|     6  |    4  |  6.094194E+00   6.093666E+00 |   5.2724E-04     -X-  |<- line
|     7  |    3  |  6.950317E+00   6.950276E+00 |   4.0715E-05     -X-  |<- line
|     8  |    3  |  7.398560E+00   7.398525E+00 |   3.5321E-05     -X-  |<- line
|     9  |    6  |  1.196440E+01   1.195565E+01 |   8.7563E-03     -X-  |<- line
|    10  |    5  |  1.335583E+01   1.335538E+01 |   4.4602E-04     -X-  |<- line
|    11  |    8  |  1.486405E+01   1.484749E+01 |   1.6556E-02     -X-  |<- line
|    12  |   10  |  1.642953E+01   1.627891E+01 |   1.5062E-01     -X-  |<- line
|    13  |    8  |  1.819263E+01   1.818741E+01 |   5.2238E-03     -X-  |<- line
|    14  |   16  |  1.961509E+01   1.957367E+01 |   4.1426E-02     -X-  |<- line
  +         BS Iteration:   2 of (up to)   60, Time:     3.83s.       +
|     1  |    1  | -8.233977E+00  -8.233977E+00 |   7.6161E-09     -X-  |<- line
|     2  |    1  | -7.442721E+00  -7.442721E+00 |   6.4162E-08     -X-  |<- line
|     3  |    1  | -3.808930E+00  -3.808930E+00 |   3.0663E-08     -X-  |<- line
|     4  |    1  | -3.246317E+00  -3.246317E+00 |   1.1273E-08     -X-  |<- line
|     5  |    1  |  5.700690E+00   5.700690E+00 |   2.6048E-08     -X-  |<- line
|     6  |    1  |  6.093666E+00   6.093666E+00 |   5.3777E-08     -X-  |<- line
|     7  |    1  |  6.950276E+00   6.950276E+00 |   7.8501E-08     -X-  |<- line
|     8  |    1  |  7.398525E+00   7.398525E+00 |   6.6368E-08     -X-  |<- line
|     9  |    1  |  1.195564E+01   1.195564E+01 |   2.4615E-07     -X-  |<- line
|    10  |    1  |  1.335538E+01   1.335538E+01 |   4.1499E-08     -X-  |<- line
|    11  |    2  |  1.484724E+01   1.484723E+01 |   6.1289E-06     -X-  |<- line
|    12  |    2  |  1.627901E+01   1.627900E+01 |   7.3914E-06     -X-  |<- line
|    13  |    2  |  1.818753E+01   1.818752E+01 |   2.5258E-06     -X-  |<- line
|    14  |    2  |  1.957372E+01   1.957372E+01 |   1.9021E-06     -X-  |<- line
  +         BS Iteration:   3 of (up to)   60, Time:     0.81s.       +
|     1  |    1  | -8.233977E+00  -8.233977E+00 |   9.3195E-10     -X-  |<- line
|     2  |    1  | -7.442721E+00  -7.442721E+00 |   7.2588E-09     -X-  |<- line
|     3  |    1  | -3.808930E+00  -3.808930E+00 |   2.5428E-09     -X-  |<- line
|     4  |    1  | -3.246317E+00  -3.246317E+00 |   1.0502E-09     -X-  |<- line
|     5  |    1  |  5.700690E+00   5.700690E+00 |   2.5087E-09     -X-  |<- line
|     6  |    1  |  6.093666E+00   6.093666E+00 |   5.6710E-09     -X-  |<- line
|     7  |    1  |  6.950276E+00   6.950276E+00 |   8.1006E-09     -X-  |<- line
|     8  |    1  |  7.398525E+00   7.398525E+00 |   7.6548E-09     -X-  |<- line
|     9  |    1  |  1.195564E+01   1.195564E+01 |   6.6209E-08     -X-  |<- line
|    10  |    1  |  1.335538E+01   1.335538E+01 |   5.8770E-09     -X-  |<- line
|    11  |    1  |  1.484723E+01   1.484723E+01 |   2.6360E-07     -X-  |<- line
|    12  |    1  |  1.627900E+01   1.627900E+01 |   2.4329E-07     -X-  |<- line
|    13  |    1  |  1.818752E+01   1.818752E+01 |   2.3920E-07     -X-  |<- line
|    14  |    1  |  1.957372E+01   1.957372E+01 |   1.3479E-07     -X-  |<- line
  +         BS Iteration:   4 of (up to)   60, Time:     0.63s.       +
  +         BS Iteration:   5 of (up to)   60, Time:     0.00s.       +
  +   Spin= 1 of  2, K-point=   2 of   44 completed, Time:    21.46s. +
|     1  |   25  |  2.721140E+01  -8.577698E+00 |   3.5789E+01     X--  |<- line
|     2  |   25  |  3.133461E+01  -7.083757E+00 |   3.8418E+01     X--  |<- line
|     3  |   25  |  3.569629E+01  -3.737540E+00 |   3.9434E+01     X--  |<- line
|     4  |   25  |  4.046036E+01  -2.841938E+00 |   4.3302E+01     X--  |<- line
|     5  |   25  |  4.259613E+01   5.334885E+00 |   3.7261E+01     X--  |<- line
|     6  |   25  |  4.519118E+01   5.752211E+00 |   3.9439E+01     X--  |<- line
|     7  |   25  |  4.892172E+01   7.521327E+00 |   4.1400E+01     X--  |<- line
|     8  |   25  |  5.103301E+01   7.882084E+00 |   4.3151E+01     X--  |<- line
|     9  |   25  |  5.307427E+01   1.079324E+01 |   4.2281E+01     X--  |<- line
|    10  |   25  |  5.573095E+01   1.354350E+01 |   4.2187E+01     X--  |<- line
|    11  |   25  |  5.568052E+01   1.448875E+01 |   4.1192E+01     X--  |<- line
|    12  |   25  |  5.953395E+01   1.669681E+01 |   4.2837E+01     X--  |<- line
|    13  |   25  |  5.915590E+01   1.827869E+01 |   4.0877E+01     X--  |<- line
|    14  |   25  |  6.313113E+01   1.958373E+01 |   4.3547E+01     X--  |<- line
  +         BS Iteration:   1 of (up to)   60, Time:    15.73s.       +
|     1  |    2  | -8.577717E+00  -8.577725E+00 |   8.8386E-06     -X-  |<- line
|     2  |    4  | -7.085995E+00  -7.086372E+00 |   3.7681E-04     -X-  |<- line
|     3  |    5  | -3.830297E+00  -3.843622E+00 |   1.3325E-02     -X-  |<- line
|     4  |    4  | -2.803710E+00  -2.804244E+00 |   5.3462E-04     -X-  |<- line
|     5  |    4  |  5.355264E+00   5.354969E+00 |   2.9522E-04     -X-  |<- line
|     6  |    6  |  5.745623E+00   5.732900E+00 |   1.2723E-02     -X-  |<- line
|     7  |    5  |  7.449452E+00   7.445441E+00 |   4.0108E-03     -X-  |<- line
|     8  |    5  |  7.958048E+00   7.957240E+00 |   8.0820E-04     -X-  |<- line
|     9  |    5  |  1.082285E+01   1.082221E+01 |   6.3656E-04     -X-  |<- line
|    10  |    6  |  1.353018E+01   1.352661E+01 |   3.5634E-03     -X-  |<- line
|    11  |    4  |  1.450188E+01   1.450183E+01 |   5.6405E-05     -X-  |<- line
|    12  |    8  |  1.670088E+01   1.669769E+01 |   3.1935E-03     -X-  |<- line
|    13  |   11  |  1.799250E+01   1.786370E+01 |   1.2880E-01     -X-  |<- line
|    14  |   22  |  1.987535E+01   1.984532E+01 |   3.0025E-02     -X-  |<- line
  +         BS Iteration:   2 of (up to)   60, Time:     4.10s.       +
|     1  |    1  | -8.577725E+00  -8.577725E+00 |   3.8675E-08     -X-  |<- line
|     2  |    1  | -7.086372E+00  -7.086372E+00 |   2.2653E-08     -X-  |<- line
|     3  |    1  | -3.843629E+00  -3.843629E+00 |   1.2795E-07     -X-  |<- line
|     4  |    1  | -2.804238E+00  -2.804238E+00 |   4.7708E-08     -X-  |<- line
|     5  |    1  |  5.354967E+00   5.354967E+00 |   2.8217E-08     -X-  |<- line
|     6  |    1  |  5.732899E+00   5.732899E+00 |   2.8572E-07     -X-  |<- line
|     7  |    1  |  7.445439E+00   7.445439E+00 |   5.5495E-08     -X-  |<- line
|     8  |    1  |  7.957243E+00   7.957243E+00 |   2.3824E-08     -X-  |<- line
|     9  |    1  |  1.082221E+01   1.082221E+01 |   3.4236E-08     -X-  |<- line
|    10  |    1  |  1.352661E+01   1.352661E+01 |   2.0446E-07     -X-  |<- line
|    11  |    1  |  1.450183E+01   1.450183E+01 |   5.3316E-08     -X-  |<- line
|    12  |    1  |  1.669767E+01   1.669767E+01 |   2.2516E-07     -X-  |<- line
|    13  |    5  |  1.786321E+01   1.786309E+01 |   1.1150E-04     -X-  |<- line
|    14  |    3  |  1.984584E+01   1.984583E+01 |   1.2546E-05     -X-  |<- line
  +         BS Iteration:   3 of (up to)   60, Time:     0.90s.       +
|     1  |    1  | -8.577725E+00  -8.577725E+00 |   7.7217E-09     -X-  |<- line
|     2  |    1  | -7.086372E+00  -7.086372E+00 |   2.1725E-09     -X-  |<- line
|     3  |    1  | -3.843629E+00  -3.843630E+00 |   1.3552E-08     -X-  |<- line
|     4  |    1  | -2.804238E+00  -2.804238E+00 |   4.2806E-09     -X-  |<- line
|     5  |    1  |  5.354967E+00   5.354967E+00 |   3.1454E-09     -X-  |<- line
|     6  |    1  |  5.732899E+00   5.732899E+00 |   2.5166E-08     -X-  |<- line
|     7  |    1  |  7.445439E+00   7.445439E+00 |   5.3231E-09     -X-  |<- line
|     8  |    1  |  7.957243E+00   7.957243E+00 |   1.9809E-09     -X-  |<- line
|     9  |    1  |  1.082221E+01   1.082221E+01 |   4.6537E-09     -X-  |<- line
|    10  |    1  |  1.352661E+01   1.352661E+01 |   5.7930E-08     -X-  |<- line
|    11  |    1  |  1.450183E+01   1.450183E+01 |   9.3494E-09     -X-  |<- line
|    12  |    1  |  1.669767E+01   1.669767E+01 |   4.6327E-08     -X-  |<- line
|    13  |    1  |  1.786309E+01   1.786309E+01 |   1.5413E-07     -X-  |<- line
|    14  |    1  |  1.984583E+01   1.984582E+01 |   5.5085E-07     -X-  |<- line
  +         BS Iteration:   4 of (up to)   60, Time:     0.63s.       +
  +         BS Iteration:   5 of (up to)   60, Time:     0.00s.       +
  +   Spin= 1 of  2, K-point=   3 of   44 completed, Time:    21.99s. +
|     1  |   25  |  2.830766E+01  -8.944610E+00 |   3.7252E+01     X--  |<- line
|     2  |   25  |  3.230567E+01  -6.897967E+00 |   3.9204E+01     X--  |<- line
|     3  |   25  |  3.515408E+01  -3.697456E+00 |   3.8852E+01     X--  |<- line
|     4  |   25  |  3.897192E+01  -2.391140E+00 |   4.1363E+01     X--  |<- line
|     5  |   25  |  4.442560E+01   5.089084E+00 |   3.9337E+01     X--  |<- line
|     6  |   25  |  4.646393E+01   5.351872E+00 |   4.1112E+01     X--  |<- line
|     7  |   25  |  4.787460E+01   8.080278E+00 |   3.9794E+01     X--  |<- line
|     8  |   25  |  5.189870E+01   8.558033E+00 |   4.3341E+01     X--  |<- line
|     9  |   25  |  5.224260E+01   9.620000E+00 |   4.2623E+01     X--  |<- line
|    10  |   25  |  5.543263E+01   1.345324E+01 |   4.1979E+01     X--  |<- line
|    11  |   25  |  5.597180E+01   1.432952E+01 |   4.1642E+01     X--  |<- line
|    12  |   25  |  5.936836E+01   1.578444E+01 |   4.3584E+01     X--  |<- line
|    13  |   25  |  6.327828E+01   1.876954E+01 |   4.4509E+01     X--  |<- line
|    14  |   25  |  6.445704E+01   1.955736E+01 |   4.4900E+01     X--  |<- line
  +         BS Iteration:   1 of (up to)   60, Time:    15.70s.       +
|     1  |    3  | -8.944846E+00  -8.944918E+00 |   7.1590E-05     -X-  |<- line
|     2  |    2  | -6.897954E+00  -6.897957E+00 |   2.8681E-06     -X-  |<- line
|     3  |    5  | -3.711082E+00  -3.719327E+00 |   8.2450E-03     -X-  |<- line
|     4  |    3  | -2.388521E+00  -2.388547E+00 |   2.6748E-05     -X-  |<- line
|     5  |    4  |  5.089108E+00   5.088998E+00 |   1.1039E-04     -X-  |<- line
|     6  |    4  |  5.352375E+00   5.351873E+00 |   5.0222E-04     -X-  |<- line
|     7  |    5  |  8.081461E+00   8.080666E+00 |   7.9488E-04     -X-  |<- line
|     8  |    2  |  8.559404E+00   8.559396E+00 |   8.3611E-06     -X-  |<- line
|     9  |    5  |  9.619801E+00   9.618737E+00 |   1.0637E-03     -X-  |<- line
|    10  |    6  |  1.345495E+01   1.344502E+01 |   9.9296E-03     -X-  |<- line
|    11  |    8  |  1.427143E+01   1.426018E+01 |   1.1250E-02     -X-  |<- line
|    12  |    7  |  1.584587E+01   1.584472E+01 |   1.1465E-03     -X-  |<- line
|    13  |   15  |  1.876451E+01   1.873601E+01 |   2.8494E-02     -X-  |<- line
|    14  |   25  |  1.956568E+01   1.938349E+01 |   1.8220E-01     X--  |<- line
  +         BS Iteration:   2 of (up to)   60, Time:     4.22s.       +
|     1  |    1  | -8.944918E+00  -8.944918E+00 |   6.3627E-08     -X-  |<- line
|     2  |    1  | -6.897957E+00  -6.897957E+00 |   3.2962E-08     -X-  |<- line
|     3  |    1  | -3.719328E+00  -3.719328E+00 |   1.7176E-07     -X-  |<- line
|     4  |    1  | -2.388547E+00  -2.388547E+00 |   2.6205E-08     -X-  |<- line
|     5  |    1  |  5.088998E+00   5.088998E+00 |   1.0437E-08     -X-  |<- line
|     6  |    1  |  5.351873E+00   5.351873E+00 |   4.2683E-08     -X-  |<- line
|     7  |    1  |  8.080666E+00   8.080666E+00 |   5.7248E-08     -X-  |<- line
|     8  |    1  |  8.559396E+00   8.559395E+00 |   1.6171E-07     -X-  |<- line
|     9  |    1  |  9.618737E+00   9.618737E+00 |   4.0306E-08     -X-  |<- line
|    10  |    1  |  1.344502E+01   1.344502E+01 |   3.6343E-07     -X-  |<- line
|    11  |    1  |  1.426018E+01   1.426018E+01 |   1.5339E-07     -X-  |<- line
|    12  |    1  |  1.584473E+01   1.584473E+01 |   1.5088E-07     -X-  |<- line
|    13  |    6  |  1.873583E+01   1.873570E+01 |   1.3331E-04     -X-  |<- line
|    14  |    8  |  1.938368E+01   1.938363E+01 |   4.4977E-05     -X-  |<- line
  +         BS Iteration:   3 of (up to)   60, Time:     1.21s.       +
|     1  |    1  | -8.944918E+00  -8.944918E+00 |   6.7343E-09     -X-  |<- line
|     2  |    1  | -6.897957E+00  -6.897957E+00 |   6.0811E-09     -X-  |<- line
|     3  |    1  | -3.719328E+00  -3.719328E+00 |   1.6176E-08     -X-  |<- line
|     4  |    1  | -2.388547E+00  -2.388547E+00 |   3.4020E-09     -X-  |<- line
|     5  |    1  |  5.088998E+00   5.088998E+00 |   1.2619E-09     -X-  |<- line
|     6  |    1  |  5.351873E+00   5.351873E+00 |   3.7978E-09     -X-  |<- line
|     7  |    1  |  8.080666E+00   8.080666E+00 |   1.5523E-08     -X-  |<- line
|     8  |    1  |  8.559395E+00   8.559395E+00 |   4.2569E-08     -X-  |<- line
|     9  |    1  |  9.618737E+00   9.618737E+00 |   5.9249E-09     -X-  |<- line
|    10  |    1  |  1.344502E+01   1.344502E+01 |   1.1420E-07     -X-  |<- line
|    11  |    1  |  1.426018E+01   1.426018E+01 |   2.1197E-08     -X-  |<- line
|    12  |    1  |  1.584473E+01   1.584473E+01 |   3.8388E-08     -X-  |<- line
|    13  |    1  |  1.873570E+01   1.873570E+01 |   4.3232E-07     -X-  |<- line
|    14  |    1  |  1.938363E+01   1.938363E+01 |   2.5233E-07     -X-  |<- line
  +         BS Iteration:   4 of (up to)   60, Time:     0.63s.       +
  +         BS Iteration:   5 of (up to)   60, Time:     0.00s.       +
[...]
  + ----------------------------------------------------------------- +
  +                                                                   +
  +           1       -8.281288                                       +
  +           2       -8.265591                                       +
  +           3       -2.875319                                       +
  +           4       -2.789336                                       +
  +           5        2.328235                                       +
  +           6        2.366118                                       +
  +           7       12.286090                                       +
  +           8       12.294772                                       +
  +           9       13.366841                                       +
  +          10       13.371821                                       +
  +          11       15.083818                                       +
  +          12       15.088846                                       +
  +          13       15.198699                                       +
  +          14       15.220173                                       +
  + ----------------------------------------------------------------- +
  +  Spin=2 kpt=   34 (  0.500000  0.041667  0.541667) kpt-group=  1  +
  + ----------------------------------------------------------------- +
  +                                                                   +
  +           1       -8.269881                                       +
  +           2       -8.254306                                       +
  +           3       -2.947644                                       +
  +           4       -2.883636                                       +
  +           5        2.506543                                       +
  +           6        2.523453                                       +
  +           7       11.981682                                       +
  +           8       11.988297                                       +
  +           9       13.065167                                       +
  +          10       13.071926                                       +
  +          11       15.158819                                       +
  +          12       15.170221                                       +
  +          13       15.774153                                       +
  +          14       15.787169                                       +
  + ----------------------------------------------------------------- +
  +  Spin=2 kpt=   35 (  0.500000  0.083333  0.583333) kpt-group=  1  +
  + ----------------------------------------------------------------- +
  +                                                                   +
  +           1       -8.238385                                       +
  +           2       -8.223000                                       +
  +           3       -3.137449                                       +
  +           4       -3.113140                                       +
  +           5        2.962357                                       +
  +           6        2.986761                                       +
  +           7       11.072298                                       +
  +           8       11.075620                                       +
  +           9       12.887191                                       +
  +          10       12.893843                                       +
  +          11       15.218685                                       +
  +          12       15.229801                                       +
  +          13       16.911238                                       +
  +          14       16.921643                                       +
  + ----------------------------------------------------------------- +
  +  Spin=2 kpt=   36 (  0.500000  0.125000  0.625000) kpt-group=  1  +
  + ----------------------------------------------------------------- +
  +                                                                   +
  +           1       -8.196695                                       +
  +           2       -8.181464                                       +
  +           3       -3.390505                                       +
  +           4       -3.383008                                       +
  +           5        3.629202                                       +
  +           6        3.669463                                       +
  +           7        9.944886                                       +
  +           8        9.947270                                       +
  +           9       12.848073                                       +
  +          10       12.854291                                       +
  +          11       15.269287                                       +
  +          12       15.279019                                       +
  +          13       18.095891                                       +
  +          14       18.105331                                       +
  + ----------------------------------------------------------------- +
  +  Spin=2 kpt=   37 (  0.500000  0.166667  0.666667) kpt-group=  1  +
  + ----------------------------------------------------------------- +
  +                                                                   +
  +           1       -8.151710                                       +
  +           2       -8.136937                                       +
  +           3       -3.629037                                       +
  +           4       -3.620575                                       +
  +           5        4.459097                                       +
  +           6        4.497379                                       +
  +           7        8.796059                                       +
  +           8        8.797286                                       +
  +           9       12.844641                                       +
  +          10       12.850578                                       +
  +          11       15.338134                                       +
  +          12       15.346478                                       +
  +          13       19.029038                                       +
  +          14       19.037769                                       +
  + ----------------------------------------------------------------- +
  +  Spin=2 kpt=   38 (  0.500000  0.208333  0.708333) kpt-group=  1  +
  + ----------------------------------------------------------------- +
  +                                                                   +
  +           1       -8.117995                                       +
  +           2       -8.104077                                       +
  +           3       -3.793699                                       +
  +           4       -3.782253                                       +
  +           5        5.368957                                       +
  +           6        5.402217                                       +
  +           7        7.691566                                       +
  +           8        7.694988                                       +
  +           9       12.846894                                       +
  +          10       12.852905                                       +
  +          11       15.386240                                       +
  +          12       15.393874                                       +
  +          13       19.078495                                       +
  +          14       19.088754                                       +
  + ----------------------------------------------------------------- +
  +  Spin=2 kpt=   39 (  0.500000  0.250000  0.750000) kpt-group=  1  +
  + ----------------------------------------------------------------- +
  +                                                                   +
  +           1       -8.103011                                       +
  +           2       -8.089908                                       +
  +           3       -3.850543                                       +
  +           4       -3.839657                                       +
  +           5        6.056073                                       +
  +           6        6.077135                                       +
  +           7        6.943888                                       +
  +           8        6.957029                                       +
  +           9       12.848165                                       +
  +          10       12.854765                                       +
  +          11       15.411197                                       +
  +          12       15.419174                                       +
  +          13       19.014953                                       +
  +          14       19.025579                                       +
  + ----------------------------------------------------------------- +
  +  Spin=2 kpt=   40 (  0.475000  0.275000  0.750000) kpt-group=  1  +
  + ----------------------------------------------------------------- +
  +                                                                   +
  +           1       -8.328739                                       +
  +           2       -7.880200                                       +
  +           3       -4.017935                                       +
  +           4       -3.593440                                       +
  +           5        5.353096                                       +
  +           6        6.134149                                       +
  +           7        7.305780                                       +
  +           8        7.336166                                       +
  +           9       12.349510                                       +
  +          10       13.127963                                       +
  +          11       15.091033                                       +
  +          12       15.918865                                       +
  +          13       18.599984                                       +
  +          14       19.339830                                       +
  + ----------------------------------------------------------------- +
  +  Spin=2 kpt=   41 (  0.450000  0.300000  0.750000) kpt-group=  1  +
  + ----------------------------------------------------------------- +
  +                                                                   +
  +           1       -8.506821                                       +
  +           2       -7.743412                                       +
  +           3       -4.155955                                       +
  +           4       -3.238557                                       +
  +           5        4.446859                                       +
  +           6        6.080659                                       +
  +           7        7.855314                                       +
  +           8        8.043981                                       +
  +           9       11.776650                                       +
  +          10       12.856140                                       +
  +          11       15.271107                                       +
  +          12       16.475127                                       +
  +          13       18.269665                                       +
  +          14       19.263792                                       +
  + ----------------------------------------------------------------- +
  +  Spin=2 kpt=   42 (  0.425000  0.325000  0.750000) kpt-group=  1  +
  + ----------------------------------------------------------------- +
  +                                                                   +
  +           1       -8.634173                                       +
  +           2       -7.665750                                       +
  +           3       -4.255765                                       +
  +           4       -2.848406                                       +
  +           5        3.661958                                       +
  +           6        6.012269                                       +
  +           7        8.476953                                       +
  +           8        8.826609                                       +
  +           9       11.164152                                       +
  +          10       12.183220                                       +
  +          11       15.835734                                       +
  +          12       17.054592                                       +
  +          13       18.031682                                       +
  +          14       18.964957                                       +
  + ----------------------------------------------------------------- +
  +  Spin=2 kpt=   43 (  0.400000  0.350000  0.750000) kpt-group=  1  +
  + ----------------------------------------------------------------- +
  +                                                                   +
  +           1       -8.707683                                       +
  +           2       -7.626136                                       +
  +           3       -4.315198                                       +
  +           4       -2.535062                                       +
  +           5        3.116202                                       +
  +           6        5.967385                                       +
  +           7        9.110075                                       +
  +           8        9.644464                                       +
  +           9       10.538081                                       +
  +          10       11.382635                                       +
  +          11       16.509512                                       +
  +          12       17.630005                                       +
  +          13       17.843921                                       +
  +          14       18.613103                                       +
  + ----------------------------------------------------------------- +
  +  Spin=2 kpt=   44 (  0.375000  0.375000  0.750000) kpt-group=  1  +
  + ----------------------------------------------------------------- +
  +                                                                   +
  +           1       -8.731625                                       +
  +           2       -7.614277                                       +
  +           3       -4.334978                                       +
  +           4       -2.411291                                       +
  +           5        2.921278                                       +
  +           6        5.951744                                       +
  +           7        9.567401                                       +
  +           8       10.085066                                       +
  +           9       10.324260                                       +
  +          10       10.707025                                       +
  +          11       16.960992                                       +
  +          12       17.672513                                       +
  +          13       18.095350                                       +
  +          14       18.244268                                       +
  =====================================================================

Writing model to Si2.orbitals
Initialising basis set.

Standard grid dimensions:  16  16  16
Fine grid dimensions:      16  16  16

Plane wave load balancing: max    265 min    243 average    252
True cut-off energy of basis :   7.332
 Reassigning basis set.
True cut-off energy of basis :   7.332

 ******************** Ewald forces ********************
 *                                                    *
 *            Cartesian components (eV/A)             *
 * -------------------------------------------------- *
 *                   x            y            z      *
 *                                                    *
 * Si        1      0.00000      0.00000      0.00000 *
 * Si        2     -0.00000     -0.00000     -0.00000 *
 *                                                    *
 ******************************************************

 *************** Local potential forces ***************
 *                                                    *
 *            Cartesian components (eV/A)             *
 * -------------------------------------------------- *
 *                   x            y            z      *
 *                                                    *
 * Si        1      0.09056     -0.02409     -0.13348 *
 * Si        2     -0.09054      0.02410      0.13350 *
 *                                                    *
 ******************************************************

 ************* Non-local potential forces *************
 *                                                    *
 *            Cartesian components (eV/A)             *
 * -------------------------------------------------- *
 *                   x            y            z      *
 *                                                    *
 * Si        1      0.11197     -0.09608     -0.02395 *
 * Si        2     -0.11198      0.09609      0.02393 *
 *                                                    *
 ******************************************************

 *********** External Efield and/or dipole ************
 *                                                    *
 *            Cartesian components (eV/A)             *
 * -------------------------------------------------- *
 *                   x            y            z      *
 *                                                    *
 * Si        1      0.00000      0.00000      0.00000 *
 * Si        2      0.00000      0.00000      0.00000 *
 *                                                    *
 ******************************************************

 ***************** Symmetrised Forces *****************
 *                                                    *
 *            Cartesian components (eV/A)             *
 * -------------------------------------------------- *
 *                   x            y            z      *
 *                                                    *
 * Si        1      0.00000      0.00000      0.00000 *
 * Si        2      0.00000      0.00000      0.00000 *
 *                                                    *
 ******************************************************

 Pseudo atomic calculation performed for Si 3s2 3p2

 Converged in 16 iterations to a total energy of -101.8630 eV

Charge spilling parameter for spin component 1 = 1.09%
Charge spilling parameter for spin component 2 = 1.09%
The total projected populations are: spin up    4.000   0.000, spin down    4.000  -0.000, total    8.000   0.000

     Atomic Populations (Mulliken)
     -----------------------------
Species   Ion     s      p      d      f     Total  Charge (e)  Spin (hbar/2)
===========================================================================
  Si       1     1.34   2.66   0.00   0.00   4.00     0.00       -0.00
  Si       2     1.34   2.66   0.00   0.00   4.00     0.00       -0.00
===========================================================================

            Bond              Population        Spin       Length (A)
======================================================================
         Si 1 -- Si 2              3.04         0.00          2.33434
======================================================================


Writing analysis data to Si2.castep_bin

Writing model to Si2.check
 
 A BibTeX formatted list of references used in this run has been written to 
 Si2.bib
 
Initialisation time =      1.53 s
Calculation time    =   2113.91 s
Finalisation time   =      0.06 s
Total time          =   2115.50 s
