 +-------------------------------------------------+
 |                                                 |
 |      CCC   AA    SSS  TTTTT  EEEEE  PPPP        |
 |     C     A  A  S       T    E      P   P       |
 |     C     AAAA   SS     T    EEE    PPPP        |
 |     C     A  A     S    T    E      P           |
 |      CCC  A  A  SSS     T    EEEEE  P           |
 |                                                 |
 +-------------------------------------------------+
 |                                                 |
 | Welcome to Academic Release CASTEP version 16.1 |          
 | Ab Initio Total Energy Program                  |
 |                                                 |
 | Authors:                                        |
 | M. Segall, M. Probert, C. Pickard, P. Hasnip,   |
 | S. Clark, K. Refson, J. R. Yates, M. Payne      |
 |                                                 |
 | Contributors:                                   |
 | P. Lindan, P. Haynes, J. White, V. Milman,      |
 | N. Govind, M. Gibson, P. Tulip, V. Cocula,      |
 | B. Montanari, D. Quigley, M. Glover,            |
 | L. Bernasconi, A. Perlov, M. Plummer,           |
 | E. McNellis, J. Meyer, J. Gale, D. Jochym       |
 | J. Aarons, B. Walker, R. Gillen, D. Jones       |
 | T. Green, I. J. Bush, C. J. Armstrong,          |
 | E. J. Higgins, E. L. Brown, M. S. McFly         |
 |                                                 |
 | Copyright (c) 2000 - 2015                       |
 |                                                 |
 |     Distributed under the terms of an           |
 |     Agreement between the United Kingdom        |
 |     Car-Parrinello (UKCP) Consortium,           |
 |     Daresbury Laboratory and Accelrys, Inc.     |
 |                                                 |
 | Please cite                                     |
 |                                                 |
 |     "First principles methods using CASTEP"     |
 |                                                 |
 |         Zeitschrift fuer Kristallographie       |
 |           220(5-6) pp. 567-570 (2005)           |
 |                                                 |
 | S. J. Clark, M. D. Segall, C. J. Pickard,       |
 | P. J. Hasnip, M. J. Probert, K. Refson,         |
 | M. C. Payne                                     |
 |                                                 |
 |       in all publications arising from          |
 |              your use of CASTEP                 |
 |                                                 |
 +-------------------------------------------------+


 Compiled for darwin_x86_64_gfortran5.0 on Fri, 19 Feb 2016 13:44:46 +0000
 from code version Version unavailable
 Compiler: GNU Fortran 5.3.0; Optimisation: intermediate
 MATHLIBS: default (LAPACK version 3.2.1)
 FFT Lib : default
 Fundamental constants values: CODATA 2010

 Run started: Mon, 22 Feb 2016 12:06:02 +0000

 Pseudo atomic calculation performed for Si 3s2 3p2

 Converged in 16 iterations to a total energy of -101.8630 eV

 Calculation not parallelised.

 ************************************ Title ************************************
 

 ***************************** General Parameters ******************************
  
 output verbosity                               : normal  (1)
 write checkpoint data to                       : Si2.check
 type of calculation                            : band structure
 stress calculation                             : off
 density difference calculation                 : on
 electron localisation func (ELF) calculation   : off
 Hirshfeld analysis                             : off
 unlimited duration calculation
 timing information                             : on
 memory usage estimate                          : on
 write final potential to formatted file        : off
 write final density to formatted file          : on
 write BibTeX reference list                    : on
 write OTFG pseudopotential files               : on
 checkpoint writing                             : both castep_bin and check files
  
 output         length unit                     : A
 output           mass unit                     : amu
 output           time unit                     : ps
 output         charge unit                     : e
 output           spin unit                     : hbar/2
 output         energy unit                     : eV
 output          force unit                     : eV/A
 output       velocity unit                     : A/ps
 output       pressure unit                     : GPa
 output     inv_length unit                     : 1/A
 output      frequency unit                     : cm-1
 output force constant unit                     : eV/A**2
 output         volume unit                     : A**3
 output   IR intensity unit                     : (D/A)**2/amu
 output         dipole unit                     : D
 output         efield unit                     : eV/A/e
 output        entropy unit                     : J/mol/K
  
 wavefunctions paging                           : none
 random number generator seed                   : randomised (120602737)
 data distribution                              : optimal for this architecture
 optimization strategy                          : maximize speed(+++)

 *********************** Exchange-Correlation Parameters ***********************
  
 using functional                               : hybrid B3LYP
 relativistic treatment                         : Koelling-Harmon
 DFT+D: Semi-empirical dispersion correction    : off

 ************************* Pseudopotential Parameters **************************
  
 pseudopotential representation                 : reciprocal space
 <beta|phi> representation                      : reciprocal space
 spin-orbit coupling                            : off

 **************************** Basis Set Parameters *****************************
  
 basis set accuracy                             : MEDIUM
 plane wave basis set cut-off                   :   200.0000   eV
 size of standard grid                          :     1.7500
 size of   fine   gmax                          :    12.6792   1/A
 finite basis set correction                    : none

 **************************** Electronic Parameters ****************************
  
 number of  electrons                           :  8.000    
 net charge of system                           :  0.000    
 treating system as non-spin-polarized
 number of bands                                :          4

 ********************* Electronic Minimization Parameters **********************
  
 Method: Treating system as non-metallic,
         and number of  SD  steps               :          1
         and number of  CG  steps               :          4
  
 total energy / atom convergence tol.           : 0.1000E-04   eV
 max force / atom convergence tol.              : ignored
 convergence tolerance window                   :          3   cycles
 max. number of SCF cycles                      :         30
 periodic dipole correction                     : NONE

 *********************** Population Analysis Parameters ************************
  
 Population analysis with cutoff                :  3.000       A

 ************************** Band Structure Parameters **************************
  
 max. number of iterations                      :         60
 max. CG steps in BS calc                       :         25
 number of bands / k-point                      :         14
 band convergence tolerance                     : 0.1000E-05   eV
 write orbitals file                            : on

 *******************************************************************************
  

                           -------------------------------
                                      Unit Cell
                           -------------------------------
        Real Lattice(A)                      Reciprocal Lattice(1/A)
   2.6954645   2.6954645   0.0000000        1.1655107   1.1655107  -1.1655107
   2.6954645   0.0000000   2.6954645        1.1655107  -1.1655107   1.1655107
   0.0000000   2.6954645   2.6954645       -1.1655107   1.1655107   1.1655107

                       Lattice parameters(A)       Cell Angles
                    a =    3.811962          alpha =   60.000000
                    b =    3.811962          beta  =   60.000000
                    c =    3.811962          gamma =   60.000000

                       Current cell volume =   39.167950       A**3

                           -------------------------------
                                     Cell Contents
                           -------------------------------
                         Total number of ions in cell =    2
                      Total number of species in cell =    1
                        Max number of any one species =    2

            xxxxxxxxxxxxxxxxxxxxxxxxxxxxxxxxxxxxxxxxxxxxxxxxxxxxxxxxxxxx
            x  Element    Atom        Fractional coordinates of atoms  x
            x            Number           u          v          w      x
            x----------------------------------------------------------x
            x  Si           1         0.000000   0.000000   0.000000   x 
            x  Si           2         0.250000   0.250000   0.250000   x 
            xxxxxxxxxxxxxxxxxxxxxxxxxxxxxxxxxxxxxxxxxxxxxxxxxxxxxxxxxxxx


                         No user defined ionic velocities

                           -------------------------------
                                   Details of Species
                           -------------------------------

                               Mass of species in AMU
                                    Si   28.0855000

                          Electric Quadrupole Moment (Barn)
                                    Si    1.0000000 No Isotope Defined

                          Files used for pseudopotentials:
                                    Si Si_00.recpot

                           -------------------------------
                              k-Points For BZ Sampling
                           -------------------------------
                       MP grid size for SCF calculation is  4  4  4
                            with an offset of   0.000  0.000  0.000
                       Number of kpoints used =            10

                           -------------------------------
                               Symmetry and Constraints
                           -------------------------------

                      Maximum deviation from symmetry =  0.00000         ANG

                      Number of symmetry operations   =          48
                      Number of ionic constraints     =           3
                      Point group of crystal =    32: Oh, m-3m, 4/m -3 2/m
                      Space group of crystal =   227: Fd-3m, F 4d 2 3 -1d

             Set iprint > 1 for details on symmetry rotations/translations

                         Centre of mass is constrained
             Set iprint > 1 for details of linear ionic constraints

                         Number of cell constraints= 5
                         Cell constraints are:  1 1 1 0 0 0

                         External pressure/stress (GPa)
                          0.00000   0.00000   0.00000
                                    0.00000   0.00000
                                              0.00000
  
+---------------- MEMORY AND SCRATCH DISK ESTIMATES PER PROCESS --------------+
|                                                     Memory          Disk    |
| Baseline code, static data and system overhead        0.0 MB         0.0 MB |
| BLAS internal memory storage                          0.0 MB         0.0 MB |
| Model and support data                                3.1 MB         0.0 MB |
| Non-local exact exchange data                        53.8 MB         0.0 MB |
| Electronic energy minimisation requirements           1.2 MB         0.0 MB |
| Force calculation requirements                        0.5 MB         0.0 MB |
|                                               ----------------------------- |
| Approx. total storage required per process           55.0 MB         0.0 MB |
|                                                                             |
| Requirements will fluctuate during execution and may exceed these estimates |
+-----------------------------------------------------------------------------+
------------------------------------------------------------------------ <-- SCF
SCF loop      Energy                           Energy gain       Timer   <-- SCF
                                               per atom          (sec)   <-- SCF
------------------------------------------------------------------------ <-- SCF
Initial   1.84495265E+002                                          4.56  <-- SCF
      1  -1.96279280E+002                    1.90387273E+002      23.58  <-- SCF
      2  -2.14388035E+002                    9.05437755E+000      42.60  <-- SCF
      3  -2.14539560E+002                    7.57625400E-002      61.61  <-- SCF
      4  -2.14539794E+002                    1.16724131E-004      81.60  <-- SCF
      5  -2.14539796E+002                    1.11641625E-006     101.59  <-- SCF
      6  -2.14539796E+002                    2.12139579E-009     127.60  <-- SCF
------------------------------------------------------------------------ <-- SCF
 
Final energy =  -214.5397961053     eV
(energy not corrected for finite basis set)
 

Writing analysis data to Si2.castep_bin

Writing model to Si2.check
  
+---------------- MEMORY AND SCRATCH DISK ESTIMATES PER PROCESS --------------+
|                                                     Memory          Disk    |
| Baseline code, static data and system overhead        0.0 MB         0.0 MB |
| BLAS internal memory storage                          0.0 MB         0.0 MB |
| Model and support data                                4.9 MB         0.0 MB |
| Non-local exact exchange data                       106.7 MB         0.0 MB |
| Band structure calculation requirements               8.1 MB         0.0 MB |
| Force calculation requirements                        0.5 MB         0.0 MB |
|                                               ----------------------------- |
| Approx. total storage required per process          114.8 MB         0.0 MB |
|                                                                             |
| Requirements will fluctuate during execution and may exceed these estimates |
+-----------------------------------------------------------------------------+
  =====================================================================
  +  Fermi energy for spin-degenerate system:    -0.10250 eV          +
  +                                                                   +
  +       B A N D   S T R U C T U R E   C A L C U L A T I O N         +
  +      (General k-point calculation - complex wavefunctions)        +
  +                                                                   +
  + ================================================================= +
  +                                                                   +
  +     Band Structure Calculation: Progress report on root process   +
  +                                                                   +
  +   There are   44 BS k-points. Root process contains   44 of them. +
  +                                                                   +
  +   Spin= 1 of  1, K-point=   1 of   44 completed, Time:    19.31s. +
  +   Spin= 1 of  1, K-point=   2 of   44 completed, Time:    19.91s. +
  +   Spin= 1 of  1, K-point=   3 of   44 completed, Time:    21.54s. +
  +   Spin= 1 of  1, K-point=   4 of   44 completed, Time:    20.49s. +
  +   Spin= 1 of  1, K-point=   5 of   44 completed, Time:    19.78s. +
  +   Spin= 1 of  1, K-point=   6 of   44 completed, Time:    19.85s. +
  +   Spin= 1 of  1, K-point=   7 of   44 completed, Time:    19.58s. +
  +   Spin= 1 of  1, K-point=   8 of   44 completed, Time:    19.58s. +
  +   Spin= 1 of  1, K-point=   9 of   44 completed, Time:    19.68s. +
  +   Spin= 1 of  1, K-point=  10 of   44 completed, Time:    19.51s. +
  +   Spin= 1 of  1, K-point=  11 of   44 completed, Time:    19.07s. +
  +   Spin= 1 of  1, K-point=  12 of   44 completed, Time:    19.44s. +
  +   Spin= 1 of  1, K-point=  13 of   44 completed, Time:    19.11s. +
  +   Spin= 1 of  1, K-point=  14 of   44 completed, Time:    19.97s. +
  +   Spin= 1 of  1, K-point=  15 of   44 completed, Time:    20.51s. +
  +   Spin= 1 of  1, K-point=  16 of   44 completed, Time:    19.40s. +
  +   Spin= 1 of  1, K-point=  17 of   44 completed, Time:    19.35s. +
  +   Spin= 1 of  1, K-point=  18 of   44 completed, Time:    18.62s. +
  +   Spin= 1 of  1, K-point=  19 of   44 completed, Time:    20.54s. +
  +   Spin= 1 of  1, K-point=  20 of   44 completed, Time:    18.95s. +
  +   Spin= 1 of  1, K-point=  21 of   44 completed, Time:    19.58s. +
  +   Spin= 1 of  1, K-point=  22 of   44 completed, Time:    20.43s. +
  +   Spin= 1 of  1, K-point=  23 of   44 completed, Time:    19.95s. +
  +   Spin= 1 of  1, K-point=  24 of   44 completed, Time:    20.48s. +
  +   Spin= 1 of  1, K-point=  25 of   44 completed, Time:    20.35s. +
  +   Spin= 1 of  1, K-point=  26 of   44 completed, Time:    19.11s. +
  +   Spin= 1 of  1, K-point=  27 of   44 completed, Time:    19.26s. +
  +   Spin= 1 of  1, K-point=  28 of   44 completed, Time:    20.69s. +
  +   Spin= 1 of  1, K-point=  29 of   44 completed, Time:    20.07s. +
  +   Spin= 1 of  1, K-point=  30 of   44 completed, Time:    19.58s. +
  +   Spin= 1 of  1, K-point=  31 of   44 completed, Time:    20.06s. +
  +   Spin= 1 of  1, K-point=  32 of   44 completed, Time:    19.96s. +
  +   Spin= 1 of  1, K-point=  33 of   44 completed, Time:    19.68s. +
  +   Spin= 1 of  1, K-point=  34 of   44 completed, Time:    19.92s. +
  +   Spin= 1 of  1, K-point=  35 of   44 completed, Time:    19.49s. +
  +   Spin= 1 of  1, K-point=  36 of   44 completed, Time:    19.87s. +
  +   Spin= 1 of  1, K-point=  37 of   44 completed, Time:    19.69s. +
  +   Spin= 1 of  1, K-point=  38 of   44 completed, Time:    19.84s. +
  +   Spin= 1 of  1, K-point=  39 of   44 completed, Time:    19.81s. +
  +   Spin= 1 of  1, K-point=  40 of   44 completed, Time:    20.30s. +
  +   Spin= 1 of  1, K-point=  41 of   44 completed, Time:    20.46s. +
  +   Spin= 1 of  1, K-point=  42 of   44 completed, Time:    23.10s. +
  +   Spin= 1 of  1, K-point=  43 of   44 completed, Time:    23.19s. +
  +   Spin= 1 of  1, K-point=  44 of   44 completed, Time:    23.22s. +
  +   Finished BS calculation on root process (waiting for others).   +
  +                                                                   +
  + ================================================================= +
  +                       Electronic energies                         +
  +                       -------------------                         +
  +                                                                   +
  +   Band number   Energy in eV                                      +
  + ================================================================= +
  +                                                                   +
  + ----------------------------------------------------------------- +
  +  Spin=1 kpt=    1 (  0.500000  0.250000  0.750000) kpt-group=  1  +
  + ----------------------------------------------------------------- +
  +                                                                   +
  +           1       -8.103013                                       +
  +           2       -8.089908                                       +
  +           3       -3.850545                                       +
  +           4       -3.839655                                       +
  +           5        6.056072                                       +
  +           6        6.077135                                       +
  +           7        6.943887                                       +
  +           8        6.957028                                       +
  +           9       12.848164                                       +
  +          10       12.854764                                       +
  +          11       15.411196                                       +
  +          12       15.419173                                       +
  +          13       19.014952                                       +
  +          14       19.025579                                       +
  + ----------------------------------------------------------------- +
  +  Spin=1 kpt=    2 (  0.500000  0.277778  0.722222) kpt-group=  1  +
  + ----------------------------------------------------------------- +
  +                                                                   +
  +           1       -8.500219                                       +
  +           2       -7.708964                                       +
  +           3       -4.075172                                       +
  +           4       -3.512559                                       +
  +           5        5.700688                                       +
  +           6        6.093667                                       +
  +           7        6.950275                                       +
  +           8        7.398524                                       +
  +           9       11.955642                                       +
  +          10       13.355381                                       +
  +          11       14.847227                                       +
  +          12       16.278999                                       +
  +          13       18.187522                                       +
  +          14       19.573716                                       +
  + ----------------------------------------------------------------- +
  +  Spin=1 kpt=    3 (  0.500000  0.305556  0.694444) kpt-group=  1  +
  + ----------------------------------------------------------------- +
  +                                                                   +
  +           1       -8.884750                                       +
  +           2       -7.393397                                       +
  +           3       -4.150653                                       +
  +           4       -3.111263                                       +
  +           5        5.354966                                       +
  +           6        5.732899                                       +
  +           7        7.445438                                       +
  +           8        7.957242                                       +
  +           9       10.822209                                       +
  +          10       13.526606                                       +
  +          11       14.501825                                       +
  +          12       16.697673                                       +
  +          13       17.863094                                       +
  +          14       19.845824                                       +
  + ----------------------------------------------------------------- +
  +  Spin=1 kpt=    4 (  0.500000  0.333333  0.666667) kpt-group=  1  +
  + ----------------------------------------------------------------- +
  +                                                                   +
  +           1       -9.236282                                       +
  +           2       -7.189321                                       +
  +           3       -4.010690                                       +
  +           4       -2.679912                                       +
  +           5        5.088996                                       +
  +           6        5.351874                                       +
  +           7        8.080665                                       +
  +           8        8.559395                                       +
  +           9        9.618737                                       +
  +          10       13.445015                                       +
  +          11       14.260182                                       +
  +          12       15.844726                                       +
  +          13       18.735696                                       +
  +          14       19.383632                                       +
  + ----------------------------------------------------------------- +
  +  Spin=1 kpt=    5 (  0.500000  0.361111  0.638889) kpt-group=  1  +
  + ----------------------------------------------------------------- +
  +                                                                   +
  +           1       -9.542803                                       +
  +           2       -7.116872                                       +
  +           3       -3.650185                                       +
  +           4       -2.256327                                       +
  +           5        4.913881                                       +
  +           6        4.988220                                       +
  +           7        8.430517                                       +
  +           8        8.794250                                       +
  +           9        9.180245                                       +
  +          10       13.140838                                       +
  +          11       14.059636                                       +
  +          12       15.043600                                       +
  +          13       18.299818                                       +
  +          14       18.725483                                       +
  + ----------------------------------------------------------------- +
  +  Spin=1 kpt=    6 (  0.500000  0.388889  0.611111) kpt-group=  1  +
  + ----------------------------------------------------------------- +
  +                                                                   +
  +           1       -9.799505                                       +
  +           2       -7.135853                                       +
  +           3       -3.117259                                       +
  +           4       -1.874096                                       +
  +           5        4.645999                                       +
  +           6        4.852097                                       +
  +           7        7.315668                                       +
  +           8        9.570223                                       +
  +           9        9.770917                                       +
  +          10       12.634717                                       +
  +          11       13.896095                                       +
  +          12       14.532926                                       +
  +          13       17.534169                                       +
  +          14       17.620132                                       +
  + ----------------------------------------------------------------- +
  +  Spin=1 kpt=    7 (  0.500000  0.416667  0.583333) kpt-group=  1  +
  + ----------------------------------------------------------------- +
  +                                                                   +
  +           1      -10.001914                                       +
  +           2       -7.193925                                       +
  +           3       -2.484347                                       +
  +           4       -1.554966                                       +
  +           5        4.301674                                       +
  +           6        4.879594                                       +
  +           7        6.348957                                       +
  +           8       10.192674                                       +
  +           9       10.405523                                       +
  +          10       12.199619                                       +
  +          11       13.765944                                       +
  +          12       14.240987                                       +
  +          13       16.500075                                       +
  +          14       16.752281                                       +
  + ----------------------------------------------------------------- +
  +  Spin=1 kpt=    8 (  0.500000  0.444444  0.555556) kpt-group=  1  +
  + ----------------------------------------------------------------- +
  +                                                                   +
  +           1      -10.151061                                       +
  +           2       -7.254707                                       +
  +           3       -1.838703                                       +
  +           4       -1.318307                                       +
  +           5        3.890779                                       +
  +           6        4.973249                                       +
  +           7        5.642756                                       +
  +           8       10.203248                                       +
  +           9       11.292388                                       +
  +          10       12.237202                                       +
  +          11       13.670363                                       +
  +          12       14.035156                                       +
  +          13       15.396782                                       +
  +          14       16.013932                                       +
  + ----------------------------------------------------------------- +
  +  Spin=1 kpt=    9 (  0.500000  0.472222  0.527778) kpt-group=  1  +
  + ----------------------------------------------------------------- +
  +                                                                   +
  +           1      -10.239251                                       +
  +           2       -7.297637                                       +
  +           3       -1.313080                                       +
  +           4       -1.174593                                       +
  +           5        3.468100                                       +
  +           6        5.083571                                       +
  +           7        5.264227                                       +
  +           8        9.967485                                       +
  +           9       12.221687                                       +
  +          10       12.663988                                       +
  +          11       13.609757                                       +
  +          12       13.831769                                       +
  +          13       14.338588                                       +
  +          14       15.432808                                       +
  + ----------------------------------------------------------------- +
  +  Spin=1 kpt=   10 (  0.500000  0.500000  0.500000) kpt-group=  1  +
  + ----------------------------------------------------------------- +
  +                                                                   +
  +           1      -10.267294                                       +
  +           2       -7.310663                                       +
  +           3       -1.124764                                       +
  +           4       -1.098176                                       +
  +           5        3.278511                                       +
  +           6        5.141003                                       +
  +           7        5.167128                                       +
  +           8        9.849973                                       +
  +           9       12.982543                                       +
  +          10       12.988295                                       +
  +          11       13.491826                                       +
  +          12       13.660841                                       +
  +          13       13.674232                                       +
  +          14       15.202256                                       +
  + ----------------------------------------------------------------- +
  +  Spin=1 kpt=   11 (  0.454545  0.454545  0.454545) kpt-group=  1  +
  + ----------------------------------------------------------------- +
  +                                                                   +
  +           1      -10.390861                                       +
  +           2       -7.133094                                       +
  +           3       -1.111806                                       +
  +           4       -1.085171                                       +
  +           5        3.294166                                       +
  +           6        5.147579                                       +
  +           7        5.173556                                       +
  +           8        9.874497                                       +
  +           9       12.275488                                       +
  +          10       12.283873                                       +
  +          11       13.088892                                       +
  +          12       14.414485                                       +
  +          13       14.425229                                       +
  +          14       15.557093                                       +
  + ----------------------------------------------------------------- +
  +  Spin=1 kpt=   12 (  0.409091  0.409091  0.409091) kpt-group=  1  +
  + ----------------------------------------------------------------- +
  +                                                                   +
  +           1      -10.689299                                       +
  +           2       -6.663030                                       +
  +           3       -1.062266                                       +
  +           4       -1.035569                                       +
  +           5        3.348571                                       +
  +           6        5.193192                                       +
  +           7        5.218589                                       +
  +           8        9.939994                                       +
  +           9       11.403334                                       +
  +          10       11.412241                                       +
  +          11       12.357539                                       +
  +          12       15.486430                                       +
  +          13       15.496509                                       +
  +          14       16.118076                                       +
  + ----------------------------------------------------------------- +
  +  Spin=1 kpt=   13 (  0.363636  0.363636  0.363636) kpt-group=  1  +
  + ----------------------------------------------------------------- +
  +                                                                   +
  +           1      -11.059275                                       +
  +           2       -6.012219                                       +
  +           3       -0.980435                                       +
  +           4       -0.953582                                       +
  +           5        3.433932                                       +
  +           6        5.252470                                       +
  +           7        5.276750                                       +
  +           8        9.988813                                       +
  +           9       10.616791                                       +
  +          10       10.625636                                       +
  +          11       11.618471                                       +
  +          12       16.226674                                       +
  +          13       16.564005                                       +
  +          14       16.573483                                       +
  + ----------------------------------------------------------------- +
  +  Spin=1 kpt=   14 (  0.318182  0.318182  0.318182) kpt-group=  1  +
  + ----------------------------------------------------------------- +
  +                                                                   +
  +           1      -11.432628                                       +
  +           2       -5.243975                                       +
  +           3       -0.861732                                       +
  +           4       -0.834602                                       +
  +           5        3.550418                                       +
  +           6        5.297013                                       +
  +           7        5.319392                                       +
  +           8        9.827877                                       +
  +           9        9.966505                                       +
  +          10        9.974585                                       +
  +          11       11.131426                                       +
  +          12       15.556592                                       +
  +          13       17.494926                                       +
  +          14       17.501252                                       +
  + ----------------------------------------------------------------- +
  +  Spin=1 kpt=   15 (  0.272727  0.272727  0.272727) kpt-group=  1  +
  + ----------------------------------------------------------------- +
  +                                                                   +
  +           1      -11.780003                                       +
  +           2       -4.394363                                       +
  +           3       -0.714476                                       +
  +           4       -0.686888                                       +
  +           5        3.704139                                       +
  +           6        5.289426                                       +
  +           7        5.308771                                       +
  +           8        9.252718                                       +
  +           9        9.502022                                       +
  +          10        9.508548                                       +
  +          11       11.094424                                       +
  +          12       14.569858                                       +
  +          13       17.580031                                       +
  +          14       17.588102                                       +
  + ----------------------------------------------------------------- +
  +  Spin=1 kpt=   16 (  0.227273  0.227273  0.227273) kpt-group=  1  +
  + ----------------------------------------------------------------- +
  +                                                                   +
  +           1      -12.087992                                       +
  +           2       -3.492389                                       +
  +           3       -0.547889                                       +
  +           4       -0.519553                                       +
  +           5        3.865059                                       +
  +           6        5.190300                                       +
  +           7        5.205619                                       +
  +           8        8.465594                                       +
  +           9        9.244004                                       +
  +          10        9.247928                                       +
  +          11       11.248021                                       +
  +          12       13.628813                                       +
  +          13       16.782293                                       +
  +          14       16.798789                                       +
  + ----------------------------------------------------------------- +
  +  Spin=1 kpt=   17 (  0.181818  0.181818  0.181818) kpt-group=  1  +
  + ----------------------------------------------------------------- +
  +                                                                   +
  +           1      -12.343384                                       +
  +           2       -2.556214                                       +
  +           3       -0.360814                                       +
  +           4       -0.331417                                       +
  +           5        4.036336                                       +
  +           6        4.992122                                       +
  +           7        5.003514                                       +
  +           8        7.602776                                       +
  +           9        9.183950                                       +
  +          10        9.185496                                       +
  +          11       11.281408                                       +
  +          12       13.006008                                       +
  +          13       15.856710                                       +
  +          14       15.876920                                       +
  + ----------------------------------------------------------------- +
  +  Spin=1 kpt=   18 (  0.136364  0.136364  0.136364) kpt-group=  1  +
  + ----------------------------------------------------------------- +
  +                                                                   +
  +           1      -12.546720                                       +
  +           2       -1.623798                                       +
  +           3       -0.177072                                       +
  +           4       -0.146229                                       +
  +           5        4.205303                                       +
  +           6        4.735123                                       +
  +           7        4.744264                                       +
  +           8        6.756332                                       +
  +           9        9.329773                                       +
  +          10        9.330324                                       +
  +          11       10.961568                                       +
  +          12       12.926684                                       +
  +          13       14.992483                                       +
  +          14       15.015321                                       +
  + ----------------------------------------------------------------- +
  +  Spin=1 kpt=   19 (  0.090909  0.090909  0.090909) kpt-group=  1  +
  + ----------------------------------------------------------------- +
  +                                                                   +
  +           1      -12.693068                                       +
  +           2       -0.724638                                       +
  +           3        0.002163                                       +
  +           4        0.034776                                       +
  +           5        4.302439                                       +
  +           6        4.471274                                       +
  +           7        4.480503                                       +
  +           8        5.965302                                       +
  +           9        9.567092                                       +
  +          10        9.568102                                       +
  +          11       10.498368                                       +
  +          12       13.175374                                       +
  +          13       14.257288                                       +
  +          14       14.282689                                       +
  + ----------------------------------------------------------------- +
  +  Spin=1 kpt=   20 (  0.045455  0.045455  0.045455) kpt-group=  1  +
  + ----------------------------------------------------------------- +
  +                                                                   +
  +           1      -12.779409                                       +
  +           2        0.006258                                       +
  +           3        0.135411                                       +
  +           4        0.169589                                       +
  +           5        4.272960                                       +
  +           6        4.283093                                       +
  +           7        4.287912                                       +
  +           8        5.407233                                       +
  +           9        9.800560                                       +
  +          10        9.802141                                       +
  +          11       10.158398                                       +
  +          12       13.450872                                       +
  +          13       13.739906                                       +
  +          14       13.767670                                       +
  + ----------------------------------------------------------------- +
  +  Spin=1 kpt=   21 (  0.000000  0.000000  0.000000) kpt-group=  1  +
  + ----------------------------------------------------------------- +
  +                                                                   +
  +           1      -12.809014                                       +
  +           2        0.183149                                       +
  +           3        0.218201                                       +
  +           4        0.315438                                       +
  +           5        4.199273                                       +
  +           6        4.205626                                       +
  +           7        4.215467                                       +
  +           8        5.231143                                       +
  +           9        9.900858                                       +
  +          10        9.903020                                       +
  +          11       10.035254                                       +
  +          12       13.543035                                       +
  +          13       13.570214                                       +
  +          14       13.574701                                       +
  + ----------------------------------------------------------------- +
  +  Spin=1 kpt=   22 (  0.041667  0.000000  0.041667) kpt-group=  1  +
  + ----------------------------------------------------------------- +
  +                                                                   +
  +           1      -12.775851                                       +
  +           2        0.031205                                       +
  +           3        0.083194                                       +
  +           4        0.170501                                       +
  +           5        4.129709                                       +
  +           6        4.367211                                       +
  +           7        4.372133                                       +
  +           8        5.408460                                       +
  +           9        9.647692                                       +
  +          10        9.937637                                       +
  +          11       10.172550                                       +
  +          12       13.608623                                       +
  +          13       13.630439                                       +
  +          14       13.739513                                       +
  + ----------------------------------------------------------------- +
  +  Spin=1 kpt=   23 (  0.083333  0.000000  0.083333) kpt-group=  1  +
  + ----------------------------------------------------------------- +
  +                                                                   +
  +           1      -12.678142                                       +
  +           2       -0.447830                                       +
  +           3       -0.231432                                       +
  +           4       -0.143987                                       +
  +           5        3.919732                                       +
  +           6        4.794116                                       +
  +           7        4.799038                                       +
  +           8        5.836846                                       +
  +           9        9.075950                                       +
  +          10       10.047718                                       +
  +          11       10.559696                                       +
  +          12       13.775530                                       +
  +          13       13.796475                                       +
  +          14       14.132127                                       +
  + ----------------------------------------------------------------- +
  +  Spin=1 kpt=   24 (  0.125000  0.000000  0.125000) kpt-group=  1  +
  + ----------------------------------------------------------------- +
  +                                                                   +
  +           1      -12.513205                                       +
  +           2       -1.123610                                       +
  +           3       -0.626785                                       +
  +           4       -0.542052                                       +
  +           5        3.635673                                       +
  +           6        5.392119                                       +
  +           7        5.394140                                       +
  +           8        6.245476                                       +
  +           9        8.581038                                       +
  +          10       10.231699                                       +
  +          11       11.148362                                       +
  +          12       14.055441                                       +
  +          13       14.076340                                       +
  +          14       14.588403                                       +
  + ----------------------------------------------------------------- +
  +  Spin=1 kpt=   25 (  0.166667  0.000000  0.166667) kpt-group=  1  +
  + ----------------------------------------------------------------- +
  +                                                                   +
  +           1      -12.283005                                       +
  +           2       -1.889654                                       +
  +           3       -1.042357                                       +
  +           4       -0.954660                                       +
  +           5        3.318067                                       +
  +           6        6.092380                                       +
  +           7        6.098679                                       +
  +           8        6.193696                                       +
  +           9        8.639262                                       +
  +          10       10.496234                                       +
  +          11       11.882781                                       +
  +          12       14.442569                                       +
  +          13       14.463312                                       +
  +          14       15.069738                                       +
  + ----------------------------------------------------------------- +
  +  Spin=1 kpt=   26 (  0.208333  0.000000  0.208333) kpt-group=  1  +
  + ----------------------------------------------------------------- +
  +                                                                   +
  +           1      -11.987906                                       +
  +           2       -2.695240                                       +
  +           3       -1.439996                                       +
  +           4       -1.352437                                       +
  +           5        3.006323                                       +
  +           6        5.658970                                       +
  +           7        6.843353                                       +
  +           8        6.851869                                       +
  +           9        9.267840                                       +
  +          10       10.825098                                       +
  +          11       12.714371                                       +
  +          12       14.927542                                       +
  +          13       14.947766                                       +
  +          14       15.607973                                       +
  + ----------------------------------------------------------------- +
  +  Spin=1 kpt=   27 (  0.250000  0.000000  0.250000) kpt-group=  1  +
  + ----------------------------------------------------------------- +
  +                                                                   +
  +           1      -11.630808                                       +
  +           2       -3.524431                                       +
  +           3       -1.806649                                       +
  +           4       -1.722374                                       +
  +           5        2.728820                                       +
  +           6        4.977168                                       +
  +           7        7.624216                                       +
  +           8        7.633401                                       +
  +           9       10.112179                                       +
  +          10       11.224107                                       +
  +          11       13.596189                                       +
  +          12       15.460975                                       +
  +          13       15.479832                                       +
  +          14       16.166031                                       +
  + ----------------------------------------------------------------- +
  +  Spin=1 kpt=   28 (  0.291667  0.000000  0.291667) kpt-group=  1  +
  + ----------------------------------------------------------------- +
  +                                                                   +
  +           1      -11.209390                                       +
  +           2       -4.352957                                       +
  +           3       -2.121440                                       +
  +           4       -2.033583                                       +
  +           5        2.498374                                       +
  +           6        4.330113                                       +
  +           7        8.439930                                       +
  +           8        8.448756                                       +
  +           9       11.047939                                       +
  +          10       11.712831                                       +
  +          11       14.478613                                       +
  +          12       15.961019                                       +
  +          13       15.976523                                       +
  +          14       16.845554                                       +
  + ----------------------------------------------------------------- +
  +  Spin=1 kpt=   29 (  0.333333  0.000000  0.333333) kpt-group=  1  +
  + ----------------------------------------------------------------- +
  +                                                                   +
  +           1      -10.730597                                       +
  +           2       -5.177693                                       +
  +           3       -2.389232                                       +
  +           4       -2.301203                                       +
  +           5        2.324196                                       +
  +           6        3.754833                                       +
  +           7        9.268131                                       +
  +           8        9.276135                                       +
  +           9       11.970335                                       +
  +          10       12.251573                                       +
  +          11       15.265388                                       +
  +          12       16.057245                                       +
  +          13       16.066123                                       +
  +          14       17.628975                                       +
  + ----------------------------------------------------------------- +
  +  Spin=1 kpt=   30 (  0.375000  0.000000  0.375000) kpt-group=  1  +
  + ----------------------------------------------------------------- +
  +                                                                   +
  +           1      -10.194421                                       +
  +           2       -5.988936                                       +
  +           3       -2.600340                                       +
  +           4       -2.515265                                       +
  +           5        2.219570                                       +
  +           6        3.267161                                       +
  +           7       10.109171                                       +
  +           8       10.116294                                       +
  +           9       12.859718                                       +
  +          10       12.872963                                       +
  +          11       15.533484                                       +
  +          12       15.537654                                       +
  +          13       15.819893                                       +
  +          14       17.912938                                       +
  + ----------------------------------------------------------------- +
  +  Spin=1 kpt=   31 (  0.416667  0.000000  0.416667) kpt-group=  1  +
  + ----------------------------------------------------------------- +
  +                                                                   +
  +           1       -9.601221                                       +
  +           2       -6.779829                                       +
  +           3       -2.750748                                       +
  +           4       -2.661562                                       +
  +           5        2.184634                                       +
  +           6        2.869919                                       +
  +           7       10.956707                                       +
  +           8       10.963053                                       +
  +           9       13.537298                                       +
  +          10       13.732543                                       +
  +          11       14.747725                                       +
  +          12       14.750570                                       +
  +          13       15.988065                                       +
  +          14       16.917993                                       +
  + ----------------------------------------------------------------- +
  +  Spin=1 kpt=   32 (  0.458333  0.000000  0.458333) kpt-group=  1  +
  + ----------------------------------------------------------------- +
  +                                                                   +
  +           1       -8.960631                                       +
  +           2       -7.543771                                       +
  +           3       -2.844386                                       +
  +           4       -2.754924                                       +
  +           5        2.225917                                       +
  +           6        2.564046                                       +
  +           7       11.773314                                       +
  +           8       11.779766                                       +
  +           9       13.900938                                       +
  +          10       13.903747                                       +
  +          11       14.274353                                       +
  +          12       14.513015                                       +
  +          13       15.740654                                       +
  +          14       15.964329                                       +
  + ----------------------------------------------------------------- +
  +  Spin=1 kpt=   33 (  0.500000  0.000000  0.500000) kpt-group=  1  +
  + ----------------------------------------------------------------- +
  +                                                                   +
  +           1       -8.281289                                       +
  +           2       -8.265592                                       +
  +           3       -2.875320                                       +
  +           4       -2.789337                                       +
  +           5        2.328237                                       +
  +           6        2.366116                                       +
  +           7       12.286089                                       +
  +           8       12.294773                                       +
  +           9       13.366841                                       +
  +          10       13.371820                                       +
  +          11       15.083817                                       +
  +          12       15.088845                                       +
  +          13       15.198696                                       +
  +          14       15.220172                                       +
  + ----------------------------------------------------------------- +
  +  Spin=1 kpt=   34 (  0.500000  0.041667  0.541667) kpt-group=  1  +
  + ----------------------------------------------------------------- +
  +                                                                   +
  +           1       -8.269882                                       +
  +           2       -8.254306                                       +
  +           3       -2.947645                                       +
  +           4       -2.883637                                       +
  +           5        2.506545                                       +
  +           6        2.523450                                       +
  +           7       11.981681                                       +
  +           8       11.988297                                       +
  +           9       13.065166                                       +
  +          10       13.071925                                       +
  +          11       15.158817                                       +
  +          12       15.170220                                       +
  +          13       15.774152                                       +
  +          14       15.787168                                       +
  + ----------------------------------------------------------------- +
  +  Spin=1 kpt=   35 (  0.500000  0.083333  0.583333) kpt-group=  1  +
  + ----------------------------------------------------------------- +
  +                                                                   +
  +           1       -8.238387                                       +
  +           2       -8.223000                                       +
  +           3       -3.137451                                       +
  +           4       -3.113140                                       +
  +           5        2.962355                                       +
  +           6        2.986762                                       +
  +           7       11.072297                                       +
  +           8       11.075620                                       +
  +           9       12.887190                                       +
  +          10       12.893842                                       +
  +          11       15.218684                                       +
  +          12       15.229800                                       +
  +          13       16.911237                                       +
  +          14       16.921642                                       +
  + ----------------------------------------------------------------- +
  +  Spin=1 kpt=   36 (  0.500000  0.125000  0.625000) kpt-group=  1  +
  + ----------------------------------------------------------------- +
  +                                                                   +
  +           1       -8.196697                                       +
  +           2       -8.181464                                       +
  +           3       -3.390506                                       +
  +           4       -3.383009                                       +
  +           5        3.629201                                       +
  +           6        3.669463                                       +
  +           7        9.944886                                       +
  +           8        9.947270                                       +
  +           9       12.848072                                       +
  +          10       12.854291                                       +
  +          11       15.269286                                       +
  +          12       15.279018                                       +
  +          13       18.095889                                       +
  +          14       18.105330                                       +
  + ----------------------------------------------------------------- +
  +  Spin=1 kpt=   37 (  0.500000  0.166667  0.666667) kpt-group=  1  +
  + ----------------------------------------------------------------- +
  +                                                                   +
  +           1       -8.151711                                       +
  +           2       -8.136937                                       +
  +           3       -3.629038                                       +
  +           4       -3.620575                                       +
  +           5        4.459096                                       +
  +           6        4.497379                                       +
  +           7        8.796058                                       +
  +           8        8.797286                                       +
  +           9       12.844640                                       +
  +          10       12.850577                                       +
  +          11       15.338133                                       +
  +          12       15.346477                                       +
  +          13       19.029036                                       +
  +          14       19.037768                                       +
  + ----------------------------------------------------------------- +
  +  Spin=1 kpt=   38 (  0.500000  0.208333  0.708333) kpt-group=  1  +
  + ----------------------------------------------------------------- +
  +                                                                   +
  +           1       -8.117997                                       +
  +           2       -8.104077                                       +
  +           3       -3.793700                                       +
  +           4       -3.782252                                       +
  +           5        5.368956                                       +
  +           6        5.402216                                       +
  +           7        7.691565                                       +
  +           8        7.694988                                       +
  +           9       12.846893                                       +
  +          10       12.852904                                       +
  +          11       15.386239                                       +
  +          12       15.393873                                       +
  +          13       19.078495                                       +
  +          14       19.088753                                       +
  + ----------------------------------------------------------------- +
  +  Spin=1 kpt=   39 (  0.500000  0.250000  0.750000) kpt-group=  1  +
  + ----------------------------------------------------------------- +
  +                                                                   +
  +           1       -8.103013                                       +
  +           2       -8.089908                                       +
  +           3       -3.850545                                       +
  +           4       -3.839655                                       +
  +           5        6.056072                                       +
  +           6        6.077135                                       +
  +           7        6.943887                                       +
  +           8        6.957028                                       +
  +           9       12.848164                                       +
  +          10       12.854764                                       +
  +          11       15.411196                                       +
  +          12       15.419173                                       +
  +          13       19.014952                                       +
  +          14       19.025579                                       +
  + ----------------------------------------------------------------- +
  +  Spin=1 kpt=   40 (  0.475000  0.275000  0.750000) kpt-group=  1  +
  + ----------------------------------------------------------------- +
  +                                                                   +
  +           1       -8.328740                                       +
  +           2       -7.880201                                       +
  +           3       -4.017934                                       +
  +           4       -3.593440                                       +
  +           5        5.353095                                       +
  +           6        6.134148                                       +
  +           7        7.305779                                       +
  +           8        7.336165                                       +
  +           9       12.349509                                       +
  +          10       13.127962                                       +
  +          11       15.091032                                       +
  +          12       15.918864                                       +
  +          13       18.599984                                       +
  +          14       19.339829                                       +
  + ----------------------------------------------------------------- +
  +  Spin=1 kpt=   41 (  0.450000  0.300000  0.750000) kpt-group=  1  +
  + ----------------------------------------------------------------- +
  +                                                                   +
  +           1       -8.506821                                       +
  +           2       -7.743414                                       +
  +           3       -4.155954                                       +
  +           4       -3.238558                                       +
  +           5        4.446858                                       +
  +           6        6.080658                                       +
  +           7        7.855313                                       +
  +           8        8.043980                                       +
  +           9       11.776649                                       +
  +          10       12.856138                                       +
  +          11       15.271106                                       +
  +          12       16.475127                                       +
  +          13       18.269665                                       +
  +          14       19.263790                                       +
  + ----------------------------------------------------------------- +
  +  Spin=1 kpt=   42 (  0.425000  0.325000  0.750000) kpt-group=  1  +
  + ----------------------------------------------------------------- +
  +                                                                   +
  +           1       -8.634173                                       +
  +           2       -7.665752                                       +
  +           3       -4.255765                                       +
  +           4       -2.848406                                       +
  +           5        3.661957                                       +
  +           6        6.012269                                       +
  +           7        8.476952                                       +
  +           8        8.826608                                       +
  +           9       11.164152                                       +
  +          10       12.183219                                       +
  +          11       15.835733                                       +
  +          12       17.054591                                       +
  +          13       18.031681                                       +
  +          14       18.964956                                       +
  + ----------------------------------------------------------------- +
  +  Spin=1 kpt=   43 (  0.400000  0.350000  0.750000) kpt-group=  1  +
  + ----------------------------------------------------------------- +
  +                                                                   +
  +           1       -8.707683                                       +
  +           2       -7.626137                                       +
  +           3       -4.315198                                       +
  +           4       -2.535062                                       +
  +           5        3.116201                                       +
  +           6        5.967384                                       +
  +           7        9.110074                                       +
  +           8        9.644463                                       +
  +           9       10.538080                                       +
  +          10       11.382634                                       +
  +          11       16.509511                                       +
  +          12       17.630005                                       +
  +          13       17.843919                                       +
  +          14       18.613066                                       +
  + ----------------------------------------------------------------- +
  +  Spin=1 kpt=   44 (  0.375000  0.375000  0.750000) kpt-group=  1  +
  + ----------------------------------------------------------------- +
  +                                                                   +
  +           1       -8.731626                                       +
  +           2       -7.614278                                       +
  +           3       -4.334978                                       +
  +           4       -2.411291                                       +
  +           5        2.921277                                       +
  +           6        5.951743                                       +
  +           7        9.567401                                       +
  +           8       10.085065                                       +
  +           9       10.324259                                       +
  +          10       10.707025                                       +
  +          11       16.960990                                       +
  +          12       17.672510                                       +
  +          13       18.095349                                       +
  +          14       18.244280                                       +
  =====================================================================

Writing model to Si2.orbitals

 ***************** Symmetrised Forces *****************
 *                                                    *
 *            Cartesian components (eV/A)             *
 * -------------------------------------------------- *
 *                   x            y            z      *
 *                                                    *
 * Si        1     -0.00000      0.00000      0.00000 *
 * Si        2      0.00000      0.00000     -0.00000 *
 *                                                    *
 ******************************************************

 Pseudo atomic calculation performed for Si 3s2 3p2

 Converged in 16 iterations to a total energy of -101.8630 eV

Charge spilling parameter for spin component 1 = 1.09%

     Atomic Populations (Mulliken)
     -----------------------------
Species   Ion     s      p      d      f     Total  Charge (e)
==============================================================
  Si       1     1.34   2.66   0.00   0.00   4.00     0.00
  Si       2     1.34   2.66   0.00   0.00   4.00     0.00
==============================================================

            Bond              Population      Length (A)
============================================================
         Si 1 -- Si 2              3.04        2.33434
============================================================


Writing analysis data to Si2.castep_bin

Writing model to Si2.check
 
 A BibTeX formatted list of references used in this run has been written to 
 Si2.bib
 
Initialisation time =      0.89 s
Calculation time    =   1045.33 s
Finalisation time   =      0.03 s
Total time          =   1046.25 s
