 +-------------------------------------------------+
 |                                                 |
 |      CCC   AA    SSS  TTTTT  EEEEE  PPPP        |
 |     C     A  A  S       T    E      P   P       |
 |     C     AAAA   SS     T    EEE    PPPP        |
 |     C     A  A     S    T    E      P           |
 |      CCC  A  A  SSS     T    EEEEE  P           |
 |                                                 |
 +-------------------------------------------------+
 |                                                 |
 | Welcome to Academic Release CASTEP version 16.1 |          
 | Ab Initio Total Energy Program                  |
 |                                                 |
 | Authors:                                        |
 | M. Segall, M. Probert, C. Pickard, P. Hasnip,   |
 | S. Clark, K. Refson, J. R. Yates, M. Payne      |
 |                                                 |
 | Contributors:                                   |
 | P. Lindan, P. Haynes, J. White, V. Milman,      |
 | N. Govind, M. Gibson, P. Tulip, V. Cocula,      |
 | B. Montanari, D. Quigley, M. Glover,            |
 | L. Bernasconi, A. Perlov, M. Plummer,           |
 | E. McNellis, J. Meyer, J. Gale, D. Jochym       |
 | J. Aarons, B. Walker, R. Gillen, D. Jones       |
 | T. Green, I. J. Bush, C. J. Armstrong,          |
 | E. J. Higgins, E. L. Brown, M. S. McFly         |
 |                                                 |
 | Copyright (c) 2000 - 2015                       |
 |                                                 |
 |     Distributed under the terms of an           |
 |     Agreement between the United Kingdom        |
 |     Car-Parrinello (UKCP) Consortium,           |
 |     Daresbury Laboratory and Accelrys, Inc.     |
 |                                                 |
 | Please cite                                     |
 |                                                 |
 |     "First principles methods using CASTEP"     |
 |                                                 |
 |         Zeitschrift fuer Kristallographie       |
 |           220(5-6) pp. 567-570 (2005)           |
 |                                                 |
 | S. J. Clark, M. D. Segall, C. J. Pickard,       |
 | P. J. Hasnip, M. J. Probert, K. Refson,         |
 | M. C. Payne                                     |
 |                                                 |
 |       in all publications arising from          |
 |              your use of CASTEP                 |
 |                                                 |
 +-------------------------------------------------+


 Compiled for darwin_x86_64_gfortran5.0 on Fri, 19 Feb 2016 13:44:46 +0000
 from code version Version unavailable
 Compiler: GNU Fortran 5.3.0; Optimisation: intermediate
 MATHLIBS: default (LAPACK version 3.2.1)
 FFT Lib : default
 Fundamental constants values: CODATA 2010

 Run started: Thu, 03 Mar 2016 12:33:43 +0000
 Info: number of up-spin electrons is not equal to the
       number of down-spins but spin_polarized=false
     - consider setting spin_polarized=true.

 Atomic calculation performed for Fe: 1s2 2s2 2p6 3s2 3p6 3d6 4s2

 Converged in 99 iterations to an ae energy of -34563.483 eV

   ============================================================                
   | Pseudopotential Report - Date of generation  3-03-2016   |                
   ------------------------------------------------------------                
   | Element: Fe Ionic charge:  8.00 Level of theory: LDA     |                
   | Atomic Solver: Koelling-Harmon                           |                
   |                                                          |                
   |               Reference Electronic Structure             |                
   |         Orbital         Occupation         Energy        |                
   |            3d              6.000           -0.285        |                
   |            4s              2.000           -0.202        |                
   |                                                          |                
   |                 Pseudopotential Definition               |                
   |        Beta     l      e      Rc     scheme   norm       |                
   |          1      0   -0.202   1.997     qc      0         |                
   |          2      0    0.250   1.997     qc      0         |                
   |          3      1    0.000   1.997     qc      0         |                
   |          4      1    0.250   1.997     qc      0         |                
   |          5      2   -0.285   1.997     qc      0         |                
   |          6      2    0.250   1.997     qc      0         |                
   |         loc     3    0.000   2.207     pn      0         |                
   |                                                          |                
   | Augmentation charge Rinner = 1.000                       |                
   | Partial core correction Rc = 1.000                       |                
   ------------------------------------------------------------                
   | "3|2.2|2.0|1.0|9|10|11|40:41:32(qc=5.5)"                 |                
   ------------------------------------------------------------                
   |      Author: Chris J. Pickard, Cambridge University      |                
   ============================================================                

 Pseudo atomic calculation performed for Fe 3d6 4s2

 Converged in 29 iterations to a total energy of -847.7109 eV

 Calculation not parallelised.

 ************************************ Title ************************************
 

 ***************************** General Parameters ******************************
  
 output verbosity                               : normal  (1)
 write checkpoint data to                       : Fe.check
 type of calculation                            : band structure
 stress calculation                             : off
 density difference calculation                 : off
 electron localisation func (ELF) calculation   : off
 Hirshfeld analysis                             : off
 unlimited duration calculation
 timing information                             : on
 memory usage estimate                          : on
 write final potential to formatted file        : off
 write final density to formatted file          : off
 write BibTeX reference list                    : on
 write OTFG pseudopotential files               : on
 checkpoint writing                             : both castep_bin and check files
  
 output         length unit                     : A
 output           mass unit                     : amu
 output           time unit                     : ps
 output         charge unit                     : e
 output           spin unit                     : hbar/2
 output         energy unit                     : eV
 output          force unit                     : eV/A
 output       velocity unit                     : A/ps
 output       pressure unit                     : GPa
 output     inv_length unit                     : 1/A
 output      frequency unit                     : cm-1
 output force constant unit                     : eV/A**2
 output         volume unit                     : A**3
 output   IR intensity unit                     : (D/A)**2/amu
 output         dipole unit                     : D
 output         efield unit                     : eV/A/e
 output        entropy unit                     : J/mol/K
  
 wavefunctions paging                           : none
 random number generator seed                   : randomised (123343552)
 data distribution                              : optimal for this architecture
 optimization strategy                          : maximize speed(+++)

 *********************** Exchange-Correlation Parameters ***********************
  
 using functional                               : Local Density Approximation
 relativistic treatment                         : Koelling-Harmon
 DFT+D: Semi-empirical dispersion correction    : off

 ************************* Pseudopotential Parameters **************************
  
 pseudopotential representation                 : reciprocal space
 <beta|phi> representation                      : reciprocal space
 spin-orbit coupling                            : off

 **************************** Basis Set Parameters *****************************
  
 basis set accuracy                             : MEDIUM
 plane wave basis set cut-off                   :   272.1139   eV
 size of standard grid                          :     1.7500
 size of   fine   gmax                          :    14.7894   1/A
 finite basis set correction                    : none

 **************************** Electronic Parameters ****************************
  
 number of  electrons                           :  8.000    
 net charge of system                           :  0.000    
 treating system as non-spin-polarized
 number of bands                                :          9

 ********************* Electronic Minimization Parameters **********************
  
 Method: Treating system as metallic with density mixing treatment of electrons,
         and number of  SD  steps               :          1
         and number of  CG  steps               :          4
  
 total energy / atom convergence tol.           : 0.1000E-04   eV
 eigen-energy convergence tolerance             : 0.1000E-05   eV
 max force / atom convergence tol.              : ignored
 convergence tolerance window                   :          3   cycles
 max. number of SCF cycles                      :         30
 number of fixed-spin iterations                :         10
 smearing scheme                                : Gaussian
 smearing width                                 : 0.2000       eV
 Fermi energy convergence tolerance             : 0.2721E-13   eV
 periodic dipole correction                     : NONE

 ************************** Density Mixing Parameters **************************
  
 density-mixing scheme                          : Broyden
 max. length of mixing history                  :         20
 charge density mixing amplitude                : 0.8000    

 *********************** Population Analysis Parameters ************************
  
 Population analysis with cutoff                :  3.000       A

 ************************** Band Structure Parameters **************************
  
 max. number of iterations                      :         60
 max. CG steps in BS calc                       :         25
 number of bands / k-point                      :          6
 band convergence tolerance                     : 0.1000E-05   eV
 write orbitals file                            : on

 *******************************************************************************
  

                           -------------------------------
                                      Unit Cell
                           -------------------------------
        Real Lattice(A)                      Reciprocal Lattice(1/A)
  -1.4332000   1.4332000   1.4332000        0.0000000   2.1920127   2.1920127
   1.4332000  -1.4332000   1.4332000        2.1920127  -0.0000000   2.1920127
   1.4332000   1.4332000  -1.4332000        2.1920127   2.1920127  -0.0000000

                       Lattice parameters(A)       Cell Angles
                    a =    2.482375          alpha =  109.471221
                    b =    2.482375          beta  =  109.471221
                    c =    2.482375          gamma =  109.471221

                       Current cell volume =   11.775528       A**3

                           -------------------------------
                                     Cell Contents
                           -------------------------------
                         Total number of ions in cell =    1
                      Total number of species in cell =    1
                        Max number of any one species =    1

            xxxxxxxxxxxxxxxxxxxxxxxxxxxxxxxxxxxxxxxxxxxxxxxxxxxxxxxxxxxx
            x  Element    Atom        Fractional coordinates of atoms  x
            x            Number           u          v          w      x
            x----------------------------------------------------------x
            x  Fe           1         0.000000   0.000000   0.000000   x 
            xxxxxxxxxxxxxxxxxxxxxxxxxxxxxxxxxxxxxxxxxxxxxxxxxxxxxxxxxxxx


                         No user defined ionic velocities

                           -------------------------------
                                   Details of Species
                           -------------------------------

                               Mass of species in AMU
                                    Fe   55.8450000

                          Electric Quadrupole Moment (Barn)
                                    Fe    0.1600000 Isotope 57

                          Files used for pseudopotentials:
                                    Fe 3|2.2|2.0|1.0|9|10|11|40:41:32(qc=5.5)

                           -------------------------------
                              k-Points For BZ Sampling
                           -------------------------------
                       MP grid size for SCF calculation is  8  8  8
                            with an offset of   0.000  0.000  0.000
                       Number of kpoints used =            26

                           -------------------------------
                               Symmetry and Constraints
                           -------------------------------

                      Maximum deviation from symmetry = 0.470004E-15     ANG

                      Number of symmetry operations   =          48
                      Number of ionic constraints     =           3
                      Point group of crystal =    32: Oh, m-3m, 4/m -3 2/m
                      Space group of crystal =   229: Im-3m, -I 4 2 3

             Set iprint > 1 for details on symmetry rotations/translations

                         Centre of mass is constrained
             Set iprint > 1 for details of linear ionic constraints

                         Number of cell constraints= 5
                         Cell constraints are:  1 1 1 0 0 0

                         External pressure/stress (GPa)
                          0.00000   0.00000   0.00000
                                    0.00000   0.00000
                                              0.00000
  
+---------------- MEMORY AND SCRATCH DISK ESTIMATES PER PROCESS --------------+
|                                                     Memory          Disk    |
| Baseline code, static data and system overhead        0.0 MB         0.0 MB |
| BLAS internal memory storage                          0.0 MB         0.0 MB |
| Model and support data                               18.6 MB         0.0 MB |
| Electronic energy minimisation requirements           1.3 MB         0.0 MB |
| Force calculation requirements                        0.2 MB         0.0 MB |
|                                               ----------------------------- |
| Approx. total storage required per process           20.0 MB         0.0 MB |
|                                                                             |
| Requirements will fluctuate during execution and may exceed these estimates |
+-----------------------------------------------------------------------------+
------------------------------------------------------------------------ <-- SCF
SCF loop      Energy           Fermi           Energy gain       Timer   <-- SCF
                               energy          per atom          (sec)   <-- SCF
------------------------------------------------------------------------ <-- SCF
Initial  -7.23222159E+002  0.00000000E+000                         8.31  <-- SCF
      1  -8.47177969E+002  8.40497653E+000   1.23955810E+002       8.46  <-- SCF
      2  -8.57225273E+002  6.61014649E+000   1.00473038E+001       8.58  <-- SCF
      3  -8.57464866E+002  6.57564594E+000   2.39592493E-001       8.74  <-- SCF
      4  -8.57578104E+002  5.11831433E+000   1.13238708E-001       8.88  <-- SCF
      5  -8.57387636E+002  6.05897949E+000  -1.90468613E-001       9.02  <-- SCF
      6  -8.57387160E+002  6.01824261E+000  -4.75713923E-004       9.19  <-- SCF
      7  -8.57387199E+002  6.01227404E+000   3.92425806E-005       9.30  <-- SCF
      8  -8.57387198E+002  6.01059971E+000  -9.10276229E-007       9.40  <-- SCF
      9  -8.57387199E+002  6.01077533E+000   6.00104889E-007       9.49  <-- SCF
------------------------------------------------------------------------ <-- SCF
 
Final energy, E             =  -857.2993785664     eV
Final free energy (E-TS)    =  -857.3871988958     eV
(energies not corrected for finite basis set)
 
NB est. 0K energy (E-0.5TS)      =  -857.3432887311     eV
 

Writing analysis data to Fe.castep_bin

Writing model to Fe.check
  
+---------------- MEMORY AND SCRATCH DISK ESTIMATES PER PROCESS --------------+
|                                                     Memory          Disk    |
| Baseline code, static data and system overhead        0.0 MB         0.0 MB |
| BLAS internal memory storage                          0.0 MB         0.0 MB |
| Model and support data                               22.5 MB         0.0 MB |
| Band structure calculation requirements               5.3 MB         0.0 MB |
| Force calculation requirements                        0.2 MB         0.0 MB |
|                                               ----------------------------- |
| Approx. total storage required per process           27.8 MB         0.0 MB |
|                                                                             |
| Requirements will fluctuate during execution and may exceed these estimates |
+-----------------------------------------------------------------------------+
  =====================================================================
  +  Fermi energy for spin-degenerate system:     6.01078 eV          +
  +                                                                   +
  +       B A N D   S T R U C T U R E   C A L C U L A T I O N         +
  +      (General k-point calculation - complex wavefunctions)        +
  +                                                                   +
  + ================================================================= +
  +                                                                   +
  +     Band Structure Calculation: Progress report on root process   +
  +                                                                   +
  +   There are  118 BS k-points. Root process contains  118 of them. +
  +                                                                   +
  +   Spin= 1 of  1, K-point=   1 of  118 completed, Time:     0.03s. +
  +   Spin= 1 of  1, K-point=   2 of  118 completed, Time:     0.03s. +
  +   Spin= 1 of  1, K-point=   3 of  118 completed, Time:     0.02s. +
  +   Spin= 1 of  1, K-point=   4 of  118 completed, Time:     0.03s. +
  +   Spin= 1 of  1, K-point=   5 of  118 completed, Time:     0.03s. +
  +   Spin= 1 of  1, K-point=   6 of  118 completed, Time:     0.03s. +
  +   Spin= 1 of  1, K-point=   7 of  118 completed, Time:     0.02s. +
  +   Spin= 1 of  1, K-point=   8 of  118 completed, Time:     0.03s. +
  +   Spin= 1 of  1, K-point=   9 of  118 completed, Time:     0.03s. +
  +   Spin= 1 of  1, K-point=  10 of  118 completed, Time:     0.03s. +
  +   Spin= 1 of  1, K-point=  11 of  118 completed, Time:     0.02s. +
  +   Spin= 1 of  1, K-point=  12 of  118 completed, Time:     0.02s. +
  +   Spin= 1 of  1, K-point=  13 of  118 completed, Time:     0.02s. +
  +   Spin= 1 of  1, K-point=  14 of  118 completed, Time:     0.02s. +
  +   Spin= 1 of  1, K-point=  15 of  118 completed, Time:     0.02s. +
  +   Spin= 1 of  1, K-point=  16 of  118 completed, Time:     0.03s. +
  +   Spin= 1 of  1, K-point=  17 of  118 completed, Time:     0.02s. +
  +   Spin= 1 of  1, K-point=  18 of  118 completed, Time:     0.03s. +
  +   Spin= 1 of  1, K-point=  19 of  118 completed, Time:     0.03s. +
  +   Spin= 1 of  1, K-point=  20 of  118 completed, Time:     0.03s. +
  +   Spin= 1 of  1, K-point=  21 of  118 completed, Time:     0.03s. +
  +   Spin= 1 of  1, K-point=  22 of  118 completed, Time:     0.02s. +
  +   Spin= 1 of  1, K-point=  23 of  118 completed, Time:     0.02s. +
  +   Spin= 1 of  1, K-point=  24 of  118 completed, Time:     0.02s. +
  +   Spin= 1 of  1, K-point=  25 of  118 completed, Time:     0.03s. +
  +   Spin= 1 of  1, K-point=  26 of  118 completed, Time:     0.03s. +
  +   Spin= 1 of  1, K-point=  27 of  118 completed, Time:     0.03s. +
  +   Spin= 1 of  1, K-point=  28 of  118 completed, Time:     0.03s. +
  +   Spin= 1 of  1, K-point=  29 of  118 completed, Time:     0.03s. +
  +   Spin= 1 of  1, K-point=  30 of  118 completed, Time:     0.02s. +
  +   Spin= 1 of  1, K-point=  31 of  118 completed, Time:     0.02s. +
  +   Spin= 1 of  1, K-point=  32 of  118 completed, Time:     0.02s. +
  +   Spin= 1 of  1, K-point=  33 of  118 completed, Time:     0.02s. +
  +   Spin= 1 of  1, K-point=  34 of  118 completed, Time:     0.02s. +
  +   Spin= 1 of  1, K-point=  35 of  118 completed, Time:     0.03s. +
  +   Spin= 1 of  1, K-point=  36 of  118 completed, Time:     0.03s. +
  +   Spin= 1 of  1, K-point=  37 of  118 completed, Time:     0.02s. +
  +   Spin= 1 of  1, K-point=  38 of  118 completed, Time:     0.02s. +
  +   Spin= 1 of  1, K-point=  39 of  118 completed, Time:     0.02s. +
  +   Spin= 1 of  1, K-point=  40 of  118 completed, Time:     0.03s. +
  +   Spin= 1 of  1, K-point=  41 of  118 completed, Time:     0.02s. +
  +   Spin= 1 of  1, K-point=  42 of  118 completed, Time:     0.02s. +
  +   Spin= 1 of  1, K-point=  43 of  118 completed, Time:     0.03s. +
  +   Spin= 1 of  1, K-point=  44 of  118 completed, Time:     0.03s. +
  +   Spin= 1 of  1, K-point=  45 of  118 completed, Time:     0.03s. +
  +   Spin= 1 of  1, K-point=  46 of  118 completed, Time:     0.02s. +
  +   Spin= 1 of  1, K-point=  47 of  118 completed, Time:     0.02s. +
  +   Spin= 1 of  1, K-point=  48 of  118 completed, Time:     0.02s. +
  +   Spin= 1 of  1, K-point=  49 of  118 completed, Time:     0.03s. +
  +   Spin= 1 of  1, K-point=  50 of  118 completed, Time:     0.03s. +
  +   Spin= 1 of  1, K-point=  51 of  118 completed, Time:     0.03s. +
  +   Spin= 1 of  1, K-point=  52 of  118 completed, Time:     0.03s. +
  +   Spin= 1 of  1, K-point=  53 of  118 completed, Time:     0.03s. +
  +   Spin= 1 of  1, K-point=  54 of  118 completed, Time:     0.03s. +
  +   Spin= 1 of  1, K-point=  55 of  118 completed, Time:     0.03s. +
  +   Spin= 1 of  1, K-point=  56 of  118 completed, Time:     0.03s. +
  +   Spin= 1 of  1, K-point=  57 of  118 completed, Time:     0.02s. +
  +   Spin= 1 of  1, K-point=  58 of  118 completed, Time:     0.03s. +
  +   Spin= 1 of  1, K-point=  59 of  118 completed, Time:     0.03s. +
  +   Spin= 1 of  1, K-point=  60 of  118 completed, Time:     0.03s. +
  +   Spin= 1 of  1, K-point=  61 of  118 completed, Time:     0.03s. +
  +   Spin= 1 of  1, K-point=  62 of  118 completed, Time:     0.03s. +
  +   Spin= 1 of  1, K-point=  63 of  118 completed, Time:     0.02s. +
  +   Spin= 1 of  1, K-point=  64 of  118 completed, Time:     0.03s. +
  +   Spin= 1 of  1, K-point=  65 of  118 completed, Time:     0.03s. +
  +   Spin= 1 of  1, K-point=  66 of  118 completed, Time:     0.03s. +
  +   Spin= 1 of  1, K-point=  67 of  118 completed, Time:     0.03s. +
  +   Spin= 1 of  1, K-point=  68 of  118 completed, Time:     0.03s. +
  +   Spin= 1 of  1, K-point=  69 of  118 completed, Time:     0.03s. +
  +   Spin= 1 of  1, K-point=  70 of  118 completed, Time:     0.03s. +
  +   Spin= 1 of  1, K-point=  71 of  118 completed, Time:     0.03s. +
  +   Spin= 1 of  1, K-point=  72 of  118 completed, Time:     0.03s. +
  +   Spin= 1 of  1, K-point=  73 of  118 completed, Time:     0.03s. +
  +   Spin= 1 of  1, K-point=  74 of  118 completed, Time:     0.02s. +
  +   Spin= 1 of  1, K-point=  75 of  118 completed, Time:     0.03s. +
  +   Spin= 1 of  1, K-point=  76 of  118 completed, Time:     0.03s. +
  +   Spin= 1 of  1, K-point=  77 of  118 completed, Time:     0.02s. +
  +   Spin= 1 of  1, K-point=  78 of  118 completed, Time:     0.03s. +
  +   Spin= 1 of  1, K-point=  79 of  118 completed, Time:     0.02s. +
  +   Spin= 1 of  1, K-point=  80 of  118 completed, Time:     0.02s. +
  +   Spin= 1 of  1, K-point=  81 of  118 completed, Time:     0.02s. +
  +   Spin= 1 of  1, K-point=  82 of  118 completed, Time:     0.02s. +
  +   Spin= 1 of  1, K-point=  83 of  118 completed, Time:     0.03s. +
  +   Spin= 1 of  1, K-point=  84 of  118 completed, Time:     0.02s. +
  +   Spin= 1 of  1, K-point=  85 of  118 completed, Time:     0.03s. +
  +   Spin= 1 of  1, K-point=  86 of  118 completed, Time:     0.03s. +
  +   Spin= 1 of  1, K-point=  87 of  118 completed, Time:     0.03s. +
  +   Spin= 1 of  1, K-point=  88 of  118 completed, Time:     0.03s. +
  +   Spin= 1 of  1, K-point=  89 of  118 completed, Time:     0.03s. +
  +   Spin= 1 of  1, K-point=  90 of  118 completed, Time:     0.03s. +
  +   Spin= 1 of  1, K-point=  91 of  118 completed, Time:     0.03s. +
  +   Spin= 1 of  1, K-point=  92 of  118 completed, Time:     0.03s. +
  +   Spin= 1 of  1, K-point=  93 of  118 completed, Time:     0.03s. +
  +   Spin= 1 of  1, K-point=  94 of  118 completed, Time:     0.03s. +
  +   Spin= 1 of  1, K-point=  95 of  118 completed, Time:     0.03s. +
  +   Spin= 1 of  1, K-point=  96 of  118 completed, Time:     0.03s. +
  +   Spin= 1 of  1, K-point=  97 of  118 completed, Time:     0.03s. +
  +   Spin= 1 of  1, K-point=  98 of  118 completed, Time:     0.03s. +
  +   Spin= 1 of  1, K-point=  99 of  118 completed, Time:     0.03s. +
  +   Spin= 1 of  1, K-point= 100 of  118 completed, Time:     0.03s. +
  +   Spin= 1 of  1, K-point= 101 of  118 completed, Time:     0.03s. +
  +   Spin= 1 of  1, K-point= 102 of  118 completed, Time:     0.03s. +
  +   Spin= 1 of  1, K-point= 103 of  118 completed, Time:     0.03s. +
  +   Spin= 1 of  1, K-point= 104 of  118 completed, Time:     0.03s. +
  +   Spin= 1 of  1, K-point= 105 of  118 completed, Time:     0.03s. +
  +   Spin= 1 of  1, K-point= 106 of  118 completed, Time:     0.03s. +
  +   Spin= 1 of  1, K-point= 107 of  118 completed, Time:     0.02s. +
  +   Spin= 1 of  1, K-point= 108 of  118 completed, Time:     0.03s. +
  +   Spin= 1 of  1, K-point= 109 of  118 completed, Time:     0.03s. +
  +   Spin= 1 of  1, K-point= 110 of  118 completed, Time:     0.02s. +
  +   Spin= 1 of  1, K-point= 111 of  118 completed, Time:     0.03s. +
  +   Spin= 1 of  1, K-point= 112 of  118 completed, Time:     0.03s. +
  +   Spin= 1 of  1, K-point= 113 of  118 completed, Time:     0.03s. +
  +   Spin= 1 of  1, K-point= 114 of  118 completed, Time:     0.03s. +
  +   Spin= 1 of  1, K-point= 115 of  118 completed, Time:     0.03s. +
  +   Spin= 1 of  1, K-point= 116 of  118 completed, Time:     0.03s. +
  +   Spin= 1 of  1, K-point= 117 of  118 completed, Time:     0.03s. +
  +   Spin= 1 of  1, K-point= 118 of  118 completed, Time:     0.03s. +
  +   Finished BS calculation on root process (waiting for others).   +
  +                                                                   +
  + ================================================================= +
  +                       Electronic energies                         +
  +                       -------------------                         +
  +                                                                   +
  +   Band number   Energy in eV                                      +
  + ================================================================= +
  +                                                                   +
  + ----------------------------------------------------------------- +
  +  Spin=1 kpt=    1 (  0.000000  0.000000  0.000000) kpt-group=  1  +
  + ----------------------------------------------------------------- +
  +                                                                   +
  +           1       -2.201992                                       +
  +           2        4.422286                                       +
  +           3        4.422286                                       +
  +           4        4.422820                                       +
  +           5        5.954597                                       +
  +           6        5.954597                                       +
  + ----------------------------------------------------------------- +
  +  Spin=1 kpt=    2 (  0.013158  0.013158  0.013158) kpt-group=  1  +
  + ----------------------------------------------------------------- +
  +                                                                   +
  +           1       -2.160081                                       +
  +           2        4.414121                                       +
  +           3        4.414122                                       +
  +           4        4.449552                                       +
  +           5        5.949231                                       +
  +           6        5.949231                                       +
  + ----------------------------------------------------------------- +
  +  Spin=1 kpt=    3 (  0.026316  0.026316  0.026316) kpt-group=  1  +
  + ----------------------------------------------------------------- +
  +                                                                   +
  +           1       -2.035071                                       +
  +           2        4.389000                                       +
  +           3        4.389000                                       +
  +           4        4.529475                                       +
  +           5        5.934828                                       +
  +           6        5.934829                                       +
  + ----------------------------------------------------------------- +
  +  Spin=1 kpt=    4 (  0.039474  0.039474  0.039474) kpt-group=  1  +
  + ----------------------------------------------------------------- +
  +                                                                   +
  +           1       -1.828612                                       +
  +           2        4.355912                                       +
  +           3        4.355912                                       +
  +           4        4.755219                                       +
  +           5        5.934146                                       +
  +           6        5.934146                                       +
  + ----------------------------------------------------------------- +
  +  Spin=1 kpt=    5 (  0.052632  0.052632  0.052632) kpt-group=  1  +
  + ----------------------------------------------------------------- +
  +                                                                   +
  +           1       -1.544933                                       +
  +           2        4.350768                                       +
  +           3        4.350769                                       +
  +           4        4.928217                                       +
  +           5        5.932769                                       +
  +           6        5.932769                                       +
  + ----------------------------------------------------------------- +
  +  Spin=1 kpt=    6 (  0.065789  0.065789  0.065789) kpt-group=  1  +
  + ----------------------------------------------------------------- +
  +                                                                   +
  +           1       -1.190278                                       +
  +           2        4.260601                                       +
  +           3        4.260602                                       +
  +           4        5.150328                                       +
  +           5        5.915947                                       +
  +           6        5.915947                                       +
  + ----------------------------------------------------------------- +
  +  Spin=1 kpt=    7 (  0.078947  0.078947  0.078947) kpt-group=  1  +
  + ----------------------------------------------------------------- +
  +                                                                   +
  +           1       -0.771014                                       +
  +           2        4.152023                                       +
  +           3        4.152023                                       +
  +           4        5.420974                                       +
  +           5        5.870688                                       +
  +           6        5.870689                                       +
  + ----------------------------------------------------------------- +
  +  Spin=1 kpt=    8 (  0.092105  0.092105  0.092105) kpt-group=  1  +
  + ----------------------------------------------------------------- +
  +                                                                   +
  +           1       -0.296069                                       +
  +           2        4.030878                                       +
  +           3        4.030878                                       +
  +           4        5.739487                                       +
  +           5        5.878286                                       +
  +           6        5.878286                                       +
  + ----------------------------------------------------------------- +
  +  Spin=1 kpt=    9 (  0.105263  0.105263  0.105263) kpt-group=  1  +
  + ----------------------------------------------------------------- +
  +                                                                   +
  +           1        0.225133                                       +
  +           2        3.948320                                       +
  +           3        3.948320                                       +
  +           4        5.926448                                       +
  +           5        5.926448                                       +
  +           6        6.115092                                       +
  + ----------------------------------------------------------------- +
  +  Spin=1 kpt=   10 (  0.118421  0.118421  0.118421) kpt-group=  1  +
  + ----------------------------------------------------------------- +
  +                                                                   +
  +           1        0.773027                                       +
  +           2        3.819098                                       +
  +           3        3.819099                                       +
  +           4        5.956643                                       +
  +           5        5.956643                                       +
  +           6        6.553797                                       +
  + ----------------------------------------------------------------- +
  +  Spin=1 kpt=   11 (  0.131579  0.131579  0.131579) kpt-group=  1  +
  + ----------------------------------------------------------------- +
  +                                                                   +
  +           1        1.330197                                       +
  +           2        3.698185                                       +
  +           3        3.698185                                       +
  +           4        5.994560                                       +
  +           5        5.994560                                       +
  +           6        7.013676                                       +
  + ----------------------------------------------------------------- +
  +  Spin=1 kpt=   12 (  0.144737  0.144737  0.144737) kpt-group=  1  +
  + ----------------------------------------------------------------- +
  +                                                                   +
  +           1        1.869301                                       +
  +           2        3.553146                                       +
  +           3        3.553146                                       +
  +           4        6.006666                                       +
  +           5        6.006667                                       +
  +           6        7.513613                                       +
  + ----------------------------------------------------------------- +
  +  Spin=1 kpt=   13 (  0.157895  0.157895  0.157895) kpt-group=  1  +
  + ----------------------------------------------------------------- +
  +                                                                   +
  +           1        2.370163                                       +
  +           2        3.460961                                       +
  +           3        3.460961                                       +
  +           4        6.046376                                       +
  +           5        6.046377                                       +
  +           6        8.106853                                       +
  + ----------------------------------------------------------------- +
  +  Spin=1 kpt=   14 (  0.171053  0.171053  0.171053) kpt-group=  1  +
  + ----------------------------------------------------------------- +
  +                                                                   +
  +           1        2.803689                                       +
  +           2        3.390755                                       +
  +           3        3.390756                                       +
  +           4        6.085244                                       +
  +           5        6.085244                                       +
  +           6        8.784959                                       +
  + ----------------------------------------------------------------- +
  +  Spin=1 kpt=   15 (  0.184211  0.184211  0.184211) kpt-group=  1  +
  + ----------------------------------------------------------------- +
  +                                                                   +
  +           1        3.147888                                       +
  +           2        3.344300                                       +
  +           3        3.344301                                       +
  +           4        6.121621                                       +
  +           5        6.121621                                       +
  +           6        9.558343                                       +
  + ----------------------------------------------------------------- +
  +  Spin=1 kpt=   16 (  0.197368  0.197368  0.197368) kpt-group=  1  +
  + ----------------------------------------------------------------- +
  +                                                                   +
  +           1        3.322008                                       +
  +           2        3.322008                                       +
  +           3        3.390101                                       +
  +           4        6.154353                                       +
  +           5        6.154353                                       +
  +           6       10.431935                                       +
  + ----------------------------------------------------------------- +
  +  Spin=1 kpt=   17 (  0.210526  0.210526  0.210526) kpt-group=  1  +
  + ----------------------------------------------------------------- +
  +                                                                   +
  +           1        3.322989                                       +
  +           2        3.322989                                       +
  +           3        3.529408                                       +
  +           4        6.182709                                       +
  +           5        6.182710                                       +
  +           6       11.403417                                       +
  + ----------------------------------------------------------------- +
  +  Spin=1 kpt=   18 (  0.223684  0.223684  0.223684) kpt-group=  1  +
  + ----------------------------------------------------------------- +
  +                                                                   +
  +           1        3.345121                                       +
  +           2        3.345121                                       +
  +           3        3.575944                                       +
  +           4        6.206284                                       +
  +           5        6.206284                                       +
  +           6       12.462414                                       +
  + ----------------------------------------------------------------- +
  +  Spin=1 kpt=   19 (  0.236842  0.236842  0.236842) kpt-group=  1  +
  + ----------------------------------------------------------------- +
  +                                                                   +
  +           1        3.385116                                       +
  +           2        3.385116                                       +
  +           3        3.548148                                       +
  +           4        6.224879                                       +
  +           5        6.224879                                       +
  +           6       13.584416                                       +
  + ----------------------------------------------------------------- +
  +  Spin=1 kpt=   20 (  0.250000  0.250000  0.250000) kpt-group=  1  +
  + ----------------------------------------------------------------- +
  +                                                                   +
  +           1        3.394239                                       +
  +           2        3.394240                                       +
  +           3        3.394551                                       +
  +           4        6.134820                                       +
  +           5        6.134820                                       +
  +           6       14.657459                                       +
  + ----------------------------------------------------------------- +
  +  Spin=1 kpt=   21 (  0.263158  0.263158  0.263158) kpt-group=  1  +
  + ----------------------------------------------------------------- +
  +                                                                   +
  +           1        3.301900                                       +
  +           2        3.486044                                       +
  +           3        3.486044                                       +
  +           4        6.182410                                       +
  +           5        6.182411                                       +
  +           6       14.196092                                       +
  + ----------------------------------------------------------------- +
  +  Spin=1 kpt=   22 (  0.276316  0.276316  0.276316) kpt-group=  1  +
  + ----------------------------------------------------------------- +
  +                                                                   +
  +           1        3.219594                                       +
  +           2        3.604495                                       +
  +           3        3.604496                                       +
  +           4        6.213415                                       +
  +           5        6.213415                                       +
  +           6       13.829718                                       +
  + ----------------------------------------------------------------- +
  +  Spin=1 kpt=   23 (  0.289474  0.289474  0.289474) kpt-group=  1  +
  + ----------------------------------------------------------------- +
  +                                                                   +
  +           1        3.109471                                       +
  +           2        3.648235                                       +
  +           3        3.648235                                       +
  +           4        6.194092                                       +
  +           5        6.194093                                       +
  +           6       13.497018                                       +
  + ----------------------------------------------------------------- +
  +  Spin=1 kpt=   24 (  0.302632  0.302632  0.302632) kpt-group=  1  +
  + ----------------------------------------------------------------- +
  +                                                                   +
  +           1        3.035844                                       +
  +           2        3.676348                                       +
  +           3        3.676348                                       +
  +           4        6.176051                                       +
  +           5        6.176052                                       +
  +           6       13.240676                                       +
  + ----------------------------------------------------------------- +
  +  Spin=1 kpt=   25 (  0.315789  0.315789  0.315789) kpt-group=  1  +
  + ----------------------------------------------------------------- +
  +                                                                   +
  +           1        3.012976                                       +
  +           2        3.680357                                       +
  +           3        3.680357                                       +
  +           4        6.163523                                       +
  +           5        6.163524                                       +
  +           6       13.063897                                       +
  + ----------------------------------------------------------------- +
  +  Spin=1 kpt=   26 (  0.328947  0.328947  0.328947) kpt-group=  1  +
  + ----------------------------------------------------------------- +
  +                                                                   +
  +           1        3.011324                                       +
  +           2        3.651250                                       +
  +           3        3.651251                                       +
  +           4        6.140768                                       +
  +           5        6.140769                                       +
  +           6       12.967683                                       +
  + ----------------------------------------------------------------- +
  +  Spin=1 kpt=   27 (  0.342105  0.342105  0.342105) kpt-group=  1  +
  + ----------------------------------------------------------------- +
  +                                                                   +
  +           1        3.150496                                       +
  +           2        3.585946                                       +
  +           3        3.585946                                       +
  +           4        6.172646                                       +
  +           5        6.172646                                       +
  +           6       12.950349                                       +
  + ----------------------------------------------------------------- +
  +  Spin=1 kpt=   28 (  0.355263  0.355263  0.355263) kpt-group=  1  +
  + ----------------------------------------------------------------- +
  +                                                                   +
  +           1        3.316921                                       +
  +           2        3.483470                                       +
  +           3        3.483471                                       +
  +           4        6.201383                                       +
  +           5        6.201383                                       +
  +           6       13.007309                                       +
  + ----------------------------------------------------------------- +
  +  Spin=1 kpt=   29 (  0.368421  0.368421  0.368421) kpt-group=  1  +
  + ----------------------------------------------------------------- +
  +                                                                   +
  +           1        3.348671                                       +
  +           2        3.348671                                       +
  +           3        3.553337                                       +
  +           4        6.250646                                       +
  +           5        6.250647                                       +
  +           6       13.132265                                       +
  + ----------------------------------------------------------------- +
  +  Spin=1 kpt=   30 (  0.381579  0.381579  0.381579) kpt-group=  1  +
  + ----------------------------------------------------------------- +
  +                                                                   +
  +           1        3.189432                                       +
  +           2        3.189432                                       +
  +           3        3.855751                                       +
  +           4        6.318454                                       +
  +           5        6.318454                                       +
  +           6       13.317312                                       +
  + ----------------------------------------------------------------- +
  +  Spin=1 kpt=   31 (  0.394737  0.394737  0.394737) kpt-group=  1  +
  + ----------------------------------------------------------------- +
  +                                                                   +
  +           1        3.053156                                       +
  +           2        3.053156                                       +
  +           3        4.220472                                       +
  +           4        6.424208                                       +
  +           5        6.424208                                       +
  +           6       13.574747                                       +
  + ----------------------------------------------------------------- +
  +  Spin=1 kpt=   32 (  0.407895  0.407895  0.407895) kpt-group=  1  +
  + ----------------------------------------------------------------- +
  +                                                                   +
  +           1        2.873851                                       +
  +           2        2.873851                                       +
  +           3        4.628369                                       +
  +           4        6.509936                                       +
  +           5        6.509936                                       +
  +           6       13.850603                                       +
  + ----------------------------------------------------------------- +
  +  Spin=1 kpt=   33 (  0.421053  0.421053  0.421053) kpt-group=  1  +
  + ----------------------------------------------------------------- +
  +                                                                   +
  +           1        2.680276                                       +
  +           2        2.680276                                       +
  +           3        5.093609                                       +
  +           4        6.554463                                       +
  +           5        6.554463                                       +
  +           6       14.157626                                       +
  + ----------------------------------------------------------------- +
  +  Spin=1 kpt=   34 (  0.434211  0.434211  0.434211) kpt-group=  1  +
  + ----------------------------------------------------------------- +
  +                                                                   +
  +           1        2.513728                                       +
  +           2        2.513729                                       +
  +           3        5.527684                                       +
  +           4        6.639842                                       +
  +           5        6.639842                                       +
  +           6       14.485669                                       +
  + ----------------------------------------------------------------- +
  +  Spin=1 kpt=   35 (  0.447368  0.447368  0.447368) kpt-group=  1  +
  + ----------------------------------------------------------------- +
  +                                                                   +
  +           1        2.367838                                       +
  +           2        2.367838                                       +
  +           3        5.946819                                       +
  +           4        6.718667                                       +
  +           5        6.718667                                       +
  +           6       14.819040                                       +
  + ----------------------------------------------------------------- +
  +  Spin=1 kpt=   36 (  0.460526  0.460526  0.460526) kpt-group=  1  +
  + ----------------------------------------------------------------- +
  +                                                                   +
  +           1        2.248502                                       +
  +           2        2.248502                                       +
  +           3        6.321441                                       +
  +           4        6.785816                                       +
  +           5        6.785816                                       +
  +           6       15.136482                                       +
  + ----------------------------------------------------------------- +
  +  Spin=1 kpt=   37 (  0.473684  0.473684  0.473684) kpt-group=  1  +
  + ----------------------------------------------------------------- +
  +                                                                   +
  +           1        2.160174                                       +
  +           2        2.160174                                       +
  +           3        6.620088                                       +
  +           4        6.837028                                       +
  +           5        6.837028                                       +
  +           6       15.408082                                       +
  + ----------------------------------------------------------------- +
  +  Spin=1 kpt=   38 (  0.486842  0.486842  0.486842) kpt-group=  1  +
  + ----------------------------------------------------------------- +
  +                                                                   +
  +           1        2.105958                                       +
  +           2        2.105958                                       +
  +           3        6.813562                                       +
  +           4        6.869094                                       +
  +           5        6.869094                                       +
  +           6       15.595928                                       +
  + ----------------------------------------------------------------- +
  +  Spin=1 kpt=   39 (  0.500000  0.500000  0.500000) kpt-group=  1  +
  + ----------------------------------------------------------------- +
  +                                                                   +
  +           1        2.087684                                       +
  +           2        2.087685                                       +
  +           3        6.880009                                       +
  +           4        6.880009                                       +
  +           5        6.880659                                       +
  +           6       15.663566                                       +
  + ----------------------------------------------------------------- +
  +  Spin=1 kpt=   40 (  0.500000  0.481481  0.481481) kpt-group=  1  +
  + ----------------------------------------------------------------- +
  +                                                                   +
  +           1        2.105516                                       +
  +           2        2.106028                                       +
  +           3        6.820342                                       +
  +           4        6.855616                                       +
  +           5        6.876678                                       +
  +           6       15.487628                                       +
  + ----------------------------------------------------------------- +
  +  Spin=1 kpt=   41 (  0.500000  0.462963  0.462963) kpt-group=  1  +
  + ----------------------------------------------------------------- +
  +                                                                   +
  +           1        2.158278                                       +
  +           2        2.160362                                       +
  +           3        6.646405                                       +
  +           4        6.784889                                       +
  +           5        6.866624                                       +
  +           6       15.021676                                       +
  + ----------------------------------------------------------------- +
  +  Spin=1 kpt=   42 (  0.500000  0.444444  0.444444) kpt-group=  1  +
  + ----------------------------------------------------------------- +
  +                                                                   +
  +           1        2.243684                                       +
  +           2        2.248568                                       +
  +           3        6.377787                                       +
  +           4        6.674745                                       +
  +           5        6.849685                                       +
  +           6       14.385445                                       +
  + ----------------------------------------------------------------- +
  +  Spin=1 kpt=   43 (  0.500000  0.425926  0.425926) kpt-group=  1  +
  + ----------------------------------------------------------------- +
  +                                                                   +
  +           1        2.357649                                       +
  +           2        2.367023                                       +
  +           3        6.040594                                       +
  +           4        6.535433                                       +
  +           5        6.825650                                       +
  +           6       13.674778                                       +
  + ----------------------------------------------------------------- +
  +  Spin=1 kpt=   44 (  0.500000  0.407407  0.407407) kpt-group=  1  +
  + ----------------------------------------------------------------- +
  +                                                                   +
  +           1        2.493747                                       +
  +           2        2.510468                                       +
  +           3        5.663572                                       +
  +           4        6.379188                                       +
  +           5        6.794346                                       +
  +           6       12.948282                                       +
  + ----------------------------------------------------------------- +
  +  Spin=1 kpt=   45 (  0.500000  0.388889  0.388889) kpt-group=  1  +
  + ----------------------------------------------------------------- +
  +                                                                   +
  +           1        2.641705                                       +
  +           2        2.671859                                       +
  +           3        5.251032                                       +
  +           4        6.219081                                       +
  +           5        6.755020                                       +
  +           6       12.239636                                       +
  + ----------------------------------------------------------------- +
  +  Spin=1 kpt=   46 (  0.500000  0.370370  0.370370) kpt-group=  1  +
  + ----------------------------------------------------------------- +
  +                                                                   +
  +           1        2.767431                                       +
  +           2        2.850286                                       +
  +           3        4.853093                                       +
  +           4        6.101840                                       +
  +           5        6.713351                                       +
  +           6       11.552855                                       +
  + ----------------------------------------------------------------- +
  +  Spin=1 kpt=   47 (  0.500000  0.351852  0.351852) kpt-group=  1  +
  + ----------------------------------------------------------------- +
  +                                                                   +
  +           1        2.882770                                       +
  +           2        3.015085                                       +
  +           3        4.520683                                       +
  +           4        5.967147                                       +
  +           5        6.655938                                       +
  +           6       10.930916                                       +
  + ----------------------------------------------------------------- +
  +  Spin=1 kpt=   48 (  0.500000  0.333333  0.333333) kpt-group=  1  +
  + ----------------------------------------------------------------- +
  +                                                                   +
  +           1        2.914623                                       +
  +           2        3.165507                                       +
  +           3        4.274617                                       +
  +           4        5.862103                                       +
  +           5        6.591486                                       +
  +           6       10.339525                                       +
  + ----------------------------------------------------------------- +
  +  Spin=1 kpt=   49 (  0.500000  0.314815  0.314815) kpt-group=  1  +
  + ----------------------------------------------------------------- +
  +                                                                   +
  +           1        2.897505                                       +
  +           2        3.296229                                       +
  +           3        4.145462                                       +
  +           4        5.804477                                       +
  +           5        6.549604                                       +
  +           6        9.846560                                       +
  + ----------------------------------------------------------------- +
  +  Spin=1 kpt=   50 (  0.500000  0.296296  0.296296) kpt-group=  1  +
  + ----------------------------------------------------------------- +
  +                                                                   +
  +           1        2.813353                                       +
  +           2        3.372720                                       +
  +           3        4.090276                                       +
  +           4        5.749145                                       +
  +           5        6.467181                                       +
  +           6        9.438594                                       +
  + ----------------------------------------------------------------- +
  +  Spin=1 kpt=   51 (  0.500000  0.277778  0.277778) kpt-group=  1  +
  + ----------------------------------------------------------------- +
  +                                                                   +
  +           1        2.679513                                       +
  +           2        3.432233                                       +
  +           3        4.054710                                       +
  +           4        5.751158                                       +
  +           5        6.390105                                       +
  +           6        9.109855                                       +
  + ----------------------------------------------------------------- +
  +  Spin=1 kpt=   52 (  0.500000  0.259259  0.259259) kpt-group=  1  +
  + ----------------------------------------------------------------- +
  +                                                                   +
  +           1        2.578161                                       +
  +           2        3.463033                                       +
  +           3        4.022269                                       +
  +           4        5.800756                                       +
  +           5        6.338787                                       +
  +           6        8.869207                                       +
  + ----------------------------------------------------------------- +
  +  Spin=1 kpt=   53 (  0.500000  0.240741  0.240741) kpt-group=  1  +
  + ----------------------------------------------------------------- +
  +                                                                   +
  +           1        2.519433                                       +
  +           2        3.451279                                       +
  +           3        3.912641                                       +
  +           4        5.838448                                       +
  +           5        6.261655                                       +
  +           6        8.698820                                       +
  + ----------------------------------------------------------------- +
  +  Spin=1 kpt=   54 (  0.500000  0.222222  0.222222) kpt-group=  1  +
  + ----------------------------------------------------------------- +
  +                                                                   +
  +           1        2.513261                                       +
  +           2        3.449294                                       +
  +           3        3.783351                                       +
  +           4        5.909607                                       +
  +           5        6.212458                                       +
  +           6        8.608543                                       +
  + ----------------------------------------------------------------- +
  +  Spin=1 kpt=   55 (  0.500000  0.203704  0.203704) kpt-group=  1  +
  + ----------------------------------------------------------------- +
  +                                                                   +
  +           1        2.565243                                       +
  +           2        3.434823                                       +
  +           3        3.624007                                       +
  +           4        5.976909                                       +
  +           5        6.197568                                       +
  +           6        8.562297                                       +
  + ----------------------------------------------------------------- +
  +  Spin=1 kpt=   56 (  0.500000  0.185185  0.185185) kpt-group=  1  +
  + ----------------------------------------------------------------- +
  +                                                                   +
  +           1        2.626873                                       +
  +           2        3.421262                                       +
  +           3        3.476817                                       +
  +           4        6.027789                                       +
  +           5        6.113442                                       +
  +           6        8.547952                                       +
  + ----------------------------------------------------------------- +
  +  Spin=1 kpt=   57 (  0.500000  0.166667  0.166667) kpt-group=  1  +
  + ----------------------------------------------------------------- +
  +                                                                   +
  +           1        2.668369                                       +
  +           2        3.412131                                       +
  +           3        3.412259                                       +
  +           4        6.071504                                       +
  +           5        6.072210                                       +
  +           6        8.548094                                       +
  + ----------------------------------------------------------------- +
  +  Spin=1 kpt=   58 (  0.500000  0.148148  0.148148) kpt-group=  1  +
  + ----------------------------------------------------------------- +
  +                                                                   +
  +           1        2.612718                                       +
  +           2        3.407121                                       +
  +           3        3.507189                                       +
  +           4        6.037035                                       +
  +           5        6.105331                                       +
  +           6        8.542613                                       +
  + ----------------------------------------------------------------- +
  +  Spin=1 kpt=   59 (  0.500000  0.129630  0.129630) kpt-group=  1  +
  + ----------------------------------------------------------------- +
  +                                                                   +
  +           1        2.478676                                       +
  +           2        3.407265                                       +
  +           3        3.772821                                       +
  +           4        6.019906                                       +
  +           5        6.134623                                       +
  +           6        8.526987                                       +
  + ----------------------------------------------------------------- +
  +  Spin=1 kpt=   60 (  0.500000  0.111111  0.111111) kpt-group=  1  +
  + ----------------------------------------------------------------- +
  +                                                                   +
  +           1        2.324555                                       +
  +           2        3.419699                                       +
  +           3        4.109188                                       +
  +           4        6.016007                                       +
  +           5        6.183646                                       +
  +           6        8.475783                                       +
  + ----------------------------------------------------------------- +
  +  Spin=1 kpt=   61 (  0.500000  0.092593  0.092593) kpt-group=  1  +
  + ----------------------------------------------------------------- +
  +                                                                   +
  +           1        2.166960                                       +
  +           2        3.386778                                       +
  +           3        4.502043                                       +
  +           4        6.009216                                       +
  +           5        6.155367                                       +
  +           6        8.369102                                       +
  + ----------------------------------------------------------------- +
  +  Spin=1 kpt=   62 (  0.500000  0.074074  0.074074) kpt-group=  1  +
  + ----------------------------------------------------------------- +
  +                                                                   +
  +           1        2.037914                                       +
  +           2        3.415912                                       +
  +           3        4.938762                                       +
  +           4        6.021055                                       +
  +           5        6.185384                                       +
  +           6        8.217601                                       +
  + ----------------------------------------------------------------- +
  +  Spin=1 kpt=   63 (  0.500000  0.055556  0.055556) kpt-group=  1  +
  + ----------------------------------------------------------------- +
  +                                                                   +
  +           1        1.928158                                       +
  +           2        3.416199                                       +
  +           3        5.389175                                       +
  +           4        6.009827                                       +
  +           5        6.189692                                       +
  +           6        7.995412                                       +
  + ----------------------------------------------------------------- +
  +  Spin=1 kpt=   64 (  0.500000  0.037037  0.037037) kpt-group=  1  +
  + ----------------------------------------------------------------- +
  +                                                                   +
  +           1        1.852568                                       +
  +           2        3.442948                                       +
  +           3        5.835207                                       +
  +           4        6.022282                                       +
  +           5        6.200527                                       +
  +           6        7.720767                                       +
  + ----------------------------------------------------------------- +
  +  Spin=1 kpt=   65 (  0.500000  0.018519  0.018519) kpt-group=  1  +
  + ----------------------------------------------------------------- +
  +                                                                   +
  +           1        1.781508                                       +
  +           2        3.441450                                       +
  +           3        5.980347                                       +
  +           4        6.179437                                       +
  +           5        6.300370                                       +
  +           6        7.401917                                       +
  + ----------------------------------------------------------------- +
  +  Spin=1 kpt=   66 (  0.500000  0.000000  0.000000) kpt-group=  1  +
  + ----------------------------------------------------------------- +
  +                                                                   +
  +           1        1.764522                                       +
  +           2        3.440934                                       +
  +           3        5.983726                                       +
  +           4        6.179536                                       +
  +           5        6.533564                                       +
  +           6        7.200994                                       +
  + ----------------------------------------------------------------- +
  +  Spin=1 kpt=   67 (  0.468750  0.000000  0.000000) kpt-group=  1  +
  + ----------------------------------------------------------------- +
  +                                                                   +
  +           1        1.756661                                       +
  +           2        3.451160                                       +
  +           3        5.964707                                       +
  +           4        6.176611                                       +
  +           5        6.402921                                       +
  +           6        7.170396                                       +
  + ----------------------------------------------------------------- +
  +  Spin=1 kpt=   68 (  0.437500  0.000000  0.000000) kpt-group=  1  +
  + ----------------------------------------------------------------- +
  +                                                                   +
  +           1        1.744842                                       +
  +           2        3.481549                                       +
  +           3        5.846738                                       +
  +           4        6.132850                                       +
  +           5        6.186404                                       +
  +           6        7.080772                                       +
  + ----------------------------------------------------------------- +
  +  Spin=1 kpt=   69 (  0.406250  0.000000  0.000000) kpt-group=  1  +
  + ----------------------------------------------------------------- +
  +                                                                   +
  +           1        1.672331                                       +
  +           2        3.531235                                       +
  +           3        5.465034                                       +
  +           4        6.012647                                       +
  +           5        6.169880                                       +
  +           6        6.938285                                       +
  + ----------------------------------------------------------------- +
  +  Spin=1 kpt=   70 (  0.375000  0.000000  0.000000) kpt-group=  1  +
  + ----------------------------------------------------------------- +
  +                                                                   +
  +           1        1.531654                                       +
  +           2        3.598780                                       +
  +           3        5.022487                                       +
  +           4        5.959038                                       +
  +           5        6.150188                                       +
  +           6        6.752173                                       +
  + ----------------------------------------------------------------- +
  +  Spin=1 kpt=   71 (  0.343750  0.000000  0.000000) kpt-group=  1  +
  + ----------------------------------------------------------------- +
  +                                                                   +
  +           1        1.293221                                       +
  +           2        3.682189                                       +
  +           3        4.666285                                       +
  +           4        5.912849                                       +
  +           5        6.128679                                       +
  +           6        6.533553                                       +
  + ----------------------------------------------------------------- +
  +  Spin=1 kpt=   72 (  0.312500  0.000000  0.000000) kpt-group=  1  +
  + ----------------------------------------------------------------- +
  +                                                                   +
  +           1        0.939105                                       +
  +           2        3.707343                                       +
  +           3        4.425956                                       +
  +           4        5.801134                                       +
  +           5        6.130604                                       +
  +           6        6.249117                                       +
  + ----------------------------------------------------------------- +
  +  Spin=1 kpt=   73 (  0.281250  0.000000  0.000000) kpt-group=  1  +
[...]
  +           2        3.942741                                       +
  +           3        4.210405                                       +
  +           4        5.554648                                       +
  +           5        6.354933                                       +
  +           6        6.611651                                       +
  + ----------------------------------------------------------------- +
  +  Spin=1 kpt=   94 (  0.360000  0.120000 -0.120000) kpt-group=  1  +
  + ----------------------------------------------------------------- +
  +                                                                   +
  +           1        1.804539                                       +
  +           2        3.921011                                       +
  +           3        4.199019                                       +
  +           4        5.602902                                       +
  +           5        6.573601                                       +
  +           6        6.936238                                       +
  + ----------------------------------------------------------------- +
  +  Spin=1 kpt=   95 (  0.390000  0.130000 -0.130000) kpt-group=  1  +
  + ----------------------------------------------------------------- +
  +                                                                   +
  +           1        2.028106                                       +
  +           2        3.909494                                       +
  +           3        4.187017                                       +
  +           4        5.586198                                       +
  +           5        6.767379                                       +
  +           6        7.410814                                       +
  + ----------------------------------------------------------------- +
  +  Spin=1 kpt=   96 (  0.420000  0.140000 -0.140000) kpt-group=  1  +
  + ----------------------------------------------------------------- +
  +                                                                   +
  +           1        2.165419                                       +
  +           2        3.950959                                       +
  +           3        4.186927                                       +
  +           4        5.601460                                       +
  +           5        6.943571                                       +
  +           6        8.030555                                       +
  + ----------------------------------------------------------------- +
  +  Spin=1 kpt=   97 (  0.450000  0.150000 -0.150000) kpt-group=  1  +
  + ----------------------------------------------------------------- +
  +                                                                   +
  +           1        2.249877                                       +
  +           2        3.959663                                       +
  +           3        4.115148                                       +
  +           4        5.560615                                       +
  +           5        7.037217                                       +
  +           6        8.691079                                       +
  + ----------------------------------------------------------------- +
  +  Spin=1 kpt=   98 (  0.480000  0.160000 -0.160000) kpt-group=  1  +
  + ----------------------------------------------------------------- +
  +                                                                   +
  +           1        2.322351                                       +
  +           2        4.013594                                       +
  +           3        4.045764                                       +
  +           4        5.521104                                       +
  +           5        7.098860                                       +
  +           6        9.284037                                       +
  + ----------------------------------------------------------------- +
  +  Spin=1 kpt=   99 (  0.510000  0.170000 -0.170000) kpt-group=  1  +
  + ----------------------------------------------------------------- +
  +                                                                   +
  +           1        2.373643                                       +
  +           2        3.938171                                       +
  +           3        4.087472                                       +
  +           4        5.488590                                       +
  +           5        7.102004                                       +
  +           6        9.556725                                       +
  + ----------------------------------------------------------------- +
  +  Spin=1 kpt=  100 (  0.540000  0.180000 -0.180000) kpt-group=  1  +
  + ----------------------------------------------------------------- +
  +                                                                   +
  +           1        2.422433                                       +
  +           2        3.829738                                       +
  +           3        4.183308                                       +
  +           4        5.463795                                       +
  +           5        7.051771                                       +
  +           6        9.430756                                       +
  + ----------------------------------------------------------------- +
  +  Spin=1 kpt=  101 (  0.570000  0.190000 -0.190000) kpt-group=  1  +
  + ----------------------------------------------------------------- +
  +                                                                   +
  +           1        2.441950                                       +
  +           2        3.675537                                       +
  +           3        4.273627                                       +
  +           4        5.437135                                       +
  +           5        6.916988                                       +
  +           6        9.005613                                       +
  + ----------------------------------------------------------------- +
  +  Spin=1 kpt=  102 (  0.600000  0.200000 -0.200000) kpt-group=  1  +
  + ----------------------------------------------------------------- +
  +                                                                   +
  +           1        2.439194                                       +
  +           2        3.575510                                       +
  +           3        4.393556                                       +
  +           4        5.401076                                       +
  +           5        6.746398                                       +
  +           6        8.525554                                       +
  + ----------------------------------------------------------------- +
  +  Spin=1 kpt=  103 (  0.630000  0.210000 -0.210000) kpt-group=  1  +
  + ----------------------------------------------------------------- +
  +                                                                   +
  +           1        2.399303                                       +
  +           2        3.573975                                       +
  +           3        4.585102                                       +
  +           4        5.350406                                       +
  +           5        6.549621                                       +
  +           6        8.083039                                       +
  + ----------------------------------------------------------------- +
  +  Spin=1 kpt=  104 (  0.660000  0.220000 -0.220000) kpt-group=  1  +
  + ----------------------------------------------------------------- +
  +                                                                   +
  +           1        2.270205                                       +
  +           2        3.623280                                       +
  +           3        4.716307                                       +
  +           4        5.262762                                       +
  +           5        6.310655                                       +
  +           6        7.691885                                       +
  + ----------------------------------------------------------------- +
  +  Spin=1 kpt=  105 (  0.690000  0.230000 -0.230000) kpt-group=  1  +
  + ----------------------------------------------------------------- +
  +                                                                   +
  +           1        2.102029                                       +
  +           2        3.733440                                       +
  +           3        4.857485                                       +
  +           4        5.146359                                       +
  +           5        6.044443                                       +
  +           6        7.382827                                       +
  + ----------------------------------------------------------------- +
  +  Spin=1 kpt=  106 (  0.720000  0.240000 -0.240000) kpt-group=  1  +
  + ----------------------------------------------------------------- +
  +                                                                   +
  +           1        1.912225                                       +
  +           2        3.887797                                       +
  +           3        4.941318                                       +
  +           4        5.034827                                       +
  +           5        5.824951                                       +
  +           6        7.155895                                       +
  + ----------------------------------------------------------------- +
  +  Spin=1 kpt=  107 (  0.750000  0.250000 -0.250000) kpt-group=  1  +
  + ----------------------------------------------------------------- +
  +                                                                   +
  +           1        1.720886                                       +
  +           2        4.025764                                       +
  +           3        4.942053                                       +
  +           4        4.942376                                       +
  +           5        5.689800                                       +
  +           6        6.988750                                       +
  + ----------------------------------------------------------------- +
  +  Spin=1 kpt=  108 (  0.727273  0.227273 -0.227273) kpt-group=  1  +
  + ----------------------------------------------------------------- +
  +                                                                   +
  +           1        1.739609                                       +
  +           2        4.000024                                       +
  +           3        4.863421                                       +
  +           4        4.989825                                       +
  +           5        5.769915                                       +
  +           6        6.997142                                       +
  + ----------------------------------------------------------------- +
  +  Spin=1 kpt=  109 (  0.704545  0.204545 -0.204545) kpt-group=  1  +
  + ----------------------------------------------------------------- +
  +                                                                   +
  +           1        1.785368                                       +
  +           2        3.933638                                       +
  +           3        4.664430                                       +
  +           4        5.084956                                       +
  +           5        5.937177                                       +
  +           6        7.016669                                       +
  + ----------------------------------------------------------------- +
  +  Spin=1 kpt=  110 (  0.681818  0.181818 -0.181818) kpt-group=  1  +
  + ----------------------------------------------------------------- +
  +                                                                   +
  +           1        1.844778                                       +
  +           2        3.898348                                       +
  +           3        4.416665                                       +
  +           4        5.241327                                       +
  +           5        6.144301                                       +
  +           6        7.049452                                       +
  + ----------------------------------------------------------------- +
  +  Spin=1 kpt=  111 (  0.659091  0.159091 -0.159091) kpt-group=  1  +
  + ----------------------------------------------------------------- +
  +                                                                   +
  +           1        1.901464                                       +
  +           2        3.935056                                       +
  +           3        4.206395                                       +
  +           4        5.408100                                       +
  +           5        6.386522                                       +
  +           6        7.090873                                       +
  + ----------------------------------------------------------------- +
  +  Spin=1 kpt=  112 (  0.636364  0.136364 -0.136364) kpt-group=  1  +
  + ----------------------------------------------------------------- +
  +                                                                   +
  +           1        1.930811                                       +
  +           2        4.009429                                       +
  +           3        4.077703                                       +
  +           4        5.557858                                       +
  +           5        6.582628                                       +
  +           6        7.131654                                       +
  + ----------------------------------------------------------------- +
  +  Spin=1 kpt=  113 (  0.613636  0.113636 -0.113636) kpt-group=  1  +
  + ----------------------------------------------------------------- +
  +                                                                   +
  +           1        1.922606                                       +
  +           2        3.848198                                       +
  +           3        4.345430                                       +
  +           4        5.678077                                       +
  +           5        6.773974                                       +
  +           6        7.178120                                       +
  + ----------------------------------------------------------------- +
  +  Spin=1 kpt=  114 (  0.590909  0.090909 -0.090909) kpt-group=  1  +
  + ----------------------------------------------------------------- +
  +                                                                   +
  +           1        1.889983                                       +
  +           2        3.693222                                       +
  +           3        4.660556                                       +
  +           4        5.784721                                       +
  +           5        6.913894                                       +
  +           6        7.151727                                       +
  + ----------------------------------------------------------------- +
  +  Spin=1 kpt=  115 (  0.568182  0.068182 -0.068182) kpt-group=  1  +
  + ----------------------------------------------------------------- +
  +                                                                   +
  +           1        1.849824                                       +
  +           2        3.571757                                       +
  +           3        5.060561                                       +
  +           4        5.868136                                       +
  +           5        7.031861                                       +
  +           6        7.083284                                       +
  + ----------------------------------------------------------------- +
  +  Spin=1 kpt=  116 (  0.545455  0.045455 -0.045455) kpt-group=  1  +
  + ----------------------------------------------------------------- +
  +                                                                   +
  +           1        1.809480                                       +
  +           2        3.515163                                       +
  +           3        5.504180                                       +
  +           4        5.950446                                       +
  +           5        6.948225                                       +
  +           6        7.132160                                       +
  + ----------------------------------------------------------------- +
  +  Spin=1 kpt=  117 (  0.522727  0.022727 -0.022727) kpt-group=  1  +
  + ----------------------------------------------------------------- +
  +                                                                   +
  +           1        1.774089                                       +
  +           2        3.459588                                       +
  +           3        5.900997                                       +
  +           4        5.992756                                       +
  +           5        6.724059                                       +
  +           6        7.183686                                       +
  + ----------------------------------------------------------------- +
  +  Spin=1 kpt=  118 (  0.500000  0.000000  0.000000) kpt-group=  1  +
  + ----------------------------------------------------------------- +
  +                                                                   +
  +           1        1.764521                                       +
  +           2        3.440934                                       +
  +           3        5.983726                                       +
  +           4        6.179536                                       +
  +           5        6.533564                                       +
  +           6        7.200995                                       +
  =====================================================================

Writing model to Fe.orbitals

 ***************** Symmetrised Forces *****************
 *                                                    *
 *            Cartesian components (eV/A)             *
 * -------------------------------------------------- *
 *                   x            y            z      *
 *                                                    *
 * Fe        1      0.00000      0.00000      0.00000 *
 *                                                    *
 ******************************************************

 Pseudo atomic calculation performed for Fe 3d6 4s2

 Converged in 29 iterations to a total energy of -847.7109 eV

Charge spilling parameter for spin component 1 = 0.26%

     Atomic Populations (Mulliken)
     -----------------------------
Species   Ion     s      p      d      f     Total  Charge (e)
==============================================================
  Fe       1     1.03   0.26   6.71   0.00   8.00     0.00
==============================================================

            Bond              Population      Length (A)
============================================================
============================================================


Writing analysis data to Fe.castep_bin

Writing model to Fe.check
 
 A BibTeX formatted list of references used in this run has been written to 
 Fe.bib
 
Initialisation time =      7.11 s
Calculation time    =      5.78 s
Finalisation time   =      0.01 s
Total time          =     12.90 s
