 +-------------------------------------------------+
 |                                                 |
 |      CCC   AA    SSS  TTTTT  EEEEE  PPPP        |
 |     C     A  A  S       T    E      P   P       |
 |     C     AAAA   SS     T    EEE    PPPP        |
 |     C     A  A     S    T    E      P           |
 |      CCC  A  A  SSS     T    EEEEE  P           |
 |                                                 |
 +-------------------------------------------------+
 |                                                 |
 | Welcome to Academic Release CASTEP version 16.1 |          
 | Ab Initio Total Energy Program                  |
 |                                                 |
 | Authors:                                        |
 | M. Segall, M. Probert, C. Pickard, P. Hasnip,   |
 | S. Clark, K. Refson, J. R. Yates, M. Payne      |
 |                                                 |
 | Contributors:                                   |
 | P. Lindan, P. Haynes, J. White, V. Milman,      |
 | N. Govind, M. Gibson, P. Tulip, V. Cocula,      |
 | B. Montanari, D. Quigley, M. Glover,            |
 | L. Bernasconi, A. Perlov, M. Plummer,           |
 | E. McNellis, J. Meyer, J. Gale, D. Jochym       |
 | J. Aarons, B. Walker, R. Gillen, D. Jones       |
 | T. Green, I. J. Bush, C. J. Armstrong,          |
 | E. J. Higgins, E. L. Brown, M. S. McFly         |
 |                                                 |
 | Copyright (c) 2000 - 2015                       |
 |                                                 |
 |     Distributed under the terms of an           |
 |     Agreement between the United Kingdom        |
 |     Car-Parrinello (UKCP) Consortium,           |
 |     Daresbury Laboratory and Accelrys, Inc.     |
 |                                                 |
 | Please cite                                     |
 |                                                 |
 |     "First principles methods using CASTEP"     |
 |                                                 |
 |         Zeitschrift fuer Kristallographie       |
 |           220(5-6) pp. 567-570 (2005)           |
 |                                                 |
 | S. J. Clark, M. D. Segall, C. J. Pickard,       |
 | P. J. Hasnip, M. J. Probert, K. Refson,         |
 | M. C. Payne                                     |
 |                                                 |
 |       in all publications arising from          |
 |              your use of CASTEP                 |
 |                                                 |
 +-------------------------------------------------+


 Compiled for darwin_x86_64_gfortran5.0 on Fri, 19 Feb 2016 13:44:46 +0000
 from code version Version unavailable
 Compiler: GNU Fortran 5.3.0; Optimisation: intermediate
 MATHLIBS: default (LAPACK version 3.2.1)
 FFT Lib : default
 Fundamental constants values: CODATA 2010

 Run started: Thu, 02 Jun 2016 14:42:51 +0100
 +-------------------------------------------------+
 |                                                 |
 |    TTTTT    DDDD     DDDD     FFFFF    TTTTT    |
 |      T      D   D    D   D    F          T      |
 |      T      D   D    D   D    FFFF       T      |
 |      T      D   D    D   D    F          T      |
 |      T      DDDD     DDDD     F          T      |
 |                                                 |
 |-------------------------------------------------|
 |                                                 |
 | Welcome to CASTEP Time-Dependent DFT (TDDFT)    |
 |                                                 |
 | Copyright (c) 2013 - 2015                       |
 |                                                 |
 | Authors:                                        |
 | D.B. Jochym, K. Refson,                         |
 | S.J. Clark, L. Bernasconi                       |
 |                                                 |
 | Initial implementation written as part of the   |
 | HECToR dCSE scheme run by NAG Ltd and funded by |
 | the EPSRC.                                      |
 |                                                 |
 +-------------------------------------------------+


 Pseudo atomic calculation performed for N 2s2 2p3

 Converged in 41 iterations to a total energy of -256.4404 eV

 Calculation not parallelised.

 ************************************ Title ************************************
 

 ***************************** General Parameters ******************************
  
 output verbosity                               : normal  (1)
 write checkpoint data to                       : N2-LDA-geom.check
 type of calculation                            : geometry optimization
 level of theory for electronic excitations     : Time-Dependent DFT
 stress calculation                             : off
 density difference calculation                 : off
 electron localisation func (ELF) calculation   : off
 Hirshfeld analysis                             : off
 unlimited duration calculation
 timing information                             : on
 memory usage estimate                          : on
 write final potential to formatted file        : off
 write final density to formatted file          : off
 write BibTeX reference list                    : on
 write OTFG pseudopotential files               : on
 checkpoint writing                             : both castep_bin and check files
  
 output         length unit                     : A
 output           mass unit                     : amu
 output           time unit                     : ps
 output         charge unit                     : e
 output           spin unit                     : hbar/2
 output         energy unit                     : eV
 output          force unit                     : eV/A
 output       velocity unit                     : A/ps
 output       pressure unit                     : GPa
 output     inv_length unit                     : 1/A
 output      frequency unit                     : cm-1
 output force constant unit                     : eV/A**2
 output         volume unit                     : A**3
 output   IR intensity unit                     : (D/A)**2/amu
 output         dipole unit                     : D
 output         efield unit                     : eV/A/e
 output        entropy unit                     : J/mol/K
  
 wavefunctions paging                           : none
 random number generator seed                   :    1234567
 data distribution                              : optimal for this architecture
 optimization strategy                          : maximize speed(+++)

 *********************** Exchange-Correlation Parameters ***********************
  
 using functional                               : Local Density Approximation
 relativistic treatment                         : Koelling-Harmon
 DFT+D: Semi-empirical dispersion correction    : off

 ************************* Pseudopotential Parameters **************************
  
 pseudopotential representation                 : reciprocal space
 <beta|phi> representation                      : reciprocal space
 spin-orbit coupling                            : off

 **************************** Basis Set Parameters *****************************
  
 plane wave basis set cut-off                   :   300.0000   eV
 size of standard grid                          :     1.7500
 size of   fine   gmax                          :    15.5288   1/A
 finite basis set correction                    : none

 **************************** Electronic Parameters ****************************
  
 number of  electrons                           :  10.00    
 net charge of system                           :  0.000    
 treating system as non-spin-polarized
 number of bands                                :          5

 ********************* Electronic Minimization Parameters **********************
  
 Method: Treating system as non-metallic,
         and number of  SD  steps               :          1
         and number of  CG  steps               :          4
  
 total energy / atom convergence tol.           : 0.1000E-11   eV
 max force / atom convergence tol.              : ignored
 convergence tolerance window                   :          3   cycles
 max. number of SCF cycles                      :         30
 periodic dipole correction                     : NONE

 *********************** Population Analysis Parameters ************************
  
 Population analysis with cutoff                :  3.000       A

 ********************** Geometry Optimization Parameters ***********************
  
 optimization method                            : BFGS
 variable cell method                           : fixed basis quality
 max. number of steps                           :          2
 estimated bulk modulus                         :  500.0       GPa
 estimated <frequency>                          :  1668.       cm-1
 geom line minimiser                            : on
 with line minimiser tolerance                  :     0.4000
 total energy convergence tolerance             : 0.5000E-04   eV/atom
        max ionic |force| tolerance             : 0.5000E-01   eV/A
 max ionic |displacement| tolerance             : 0.1000E-02   A
   max |stress component| tolerance             : 0.1000       GPa
 convergence tolerance window                   :          2   steps
 backup results every                           :          5   steps

 ************************ Time-Dependent DFT Parameters ************************
  
 number of excited states                       :          1
 state selected for calculation of forces       :          1
 state convergence tolerance                    : 0.1000E-05   eV
 convergence tolerance window                   :          2   iterations
 max. number of iterations                      :         50
 no. of extra (convergence indifferent) states  :          2
 using tddft functional                         : adiabatic Local Density Approximation
 Time-Dependent DFT method                      : Hutter
 matrix eigenvalue method                       : Davidson
 Time-Dependent DFT approximation               : Tamm-Dancoff
 Time-Dependent DFT position operator           : molecular

 *******************************************************************************
  

                           -------------------------------
                                      Unit Cell
                           -------------------------------
        Real Lattice(A)                      Reciprocal Lattice(1/A)
   6.0000000   0.0000000   0.0000000        1.0471976  -0.0000000  -0.0000000
   0.0000000   6.0000000   0.0000000        0.0000000   1.0471976  -0.0000000
   0.0000000   0.0000000   6.0000000        0.0000000   0.0000000   1.0471976

                       Lattice parameters(A)       Cell Angles
                    a =    6.000000          alpha =   90.000000
                    b =    6.000000          beta  =   90.000000
                    c =    6.000000          gamma =   90.000000

                       Current cell volume =  216.000000       A**3

                           -------------------------------
                                     Cell Contents
                           -------------------------------
                         Total number of ions in cell =    2
                      Total number of species in cell =    1
                        Max number of any one species =    2

            xxxxxxxxxxxxxxxxxxxxxxxxxxxxxxxxxxxxxxxxxxxxxxxxxxxxxxxxxxxx
            x  Element    Atom        Fractional coordinates of atoms  x
            x            Number           u          v          w      x
            x----------------------------------------------------------x
            x  N            1         0.114883   0.000000   0.000000   x 
            x  N            2        -0.114883   0.000000   0.000000   x 
            xxxxxxxxxxxxxxxxxxxxxxxxxxxxxxxxxxxxxxxxxxxxxxxxxxxxxxxxxxxx


                         No user defined ionic velocities

                           -------------------------------
                                   Details of Species
                           -------------------------------

                               Mass of species in AMU
                                    N   14.0067400

                          Electric Quadrupole Moment (Barn)
                                    N    0.0204400 Isotope 14

                          Files used for pseudopotentials:
                                    N N_00.recpot

                           -------------------------------
                              k-Points For BZ Sampling
                           -------------------------------
                       MP grid size for SCF calculation is  1  1  1
                            with an offset of   0.000  0.000  0.000
                       Number of kpoints used =             1

                           -------------------------------
                               Symmetry and Constraints
                           -------------------------------

                      Maximum deviation from symmetry = 0.104362E-30     ANG

                      Number of symmetry operations   =          16
                      Number of ionic constraints     =           3
                      Point group of crystal =    15: D4h, 4/mmm, 4/m 2/m 2/m
                      Space group of crystal =   123: P4/mmm, -P 4 2

             Set iprint > 1 for details on symmetry rotations/translations

                         Centre of mass is constrained
             Set iprint > 1 for details of linear ionic constraints

                         Number of cell constraints= 6
                         Cell constraints are:  0 0 0 0 0 0

                         External pressure/stress (GPa)
                          0.00000   0.00000   0.00000
                                    0.00000   0.00000
                                              0.00000
  
+---------------- MEMORY AND SCRATCH DISK ESTIMATES PER PROCESS --------------+
|                                                     Memory          Disk    |
| Baseline code, static data and system overhead        0.0 MB         0.0 MB |
| BLAS internal memory storage                          0.0 MB         0.0 MB |
| Model and support data                                5.5 MB         0.0 MB |
| Electronic energy minimisation requirements           2.1 MB         0.0 MB |
| Force calculation requirements                        2.5 MB         0.0 MB |
|                                               ----------------------------- |
| Approx. total storage required per process            8.0 MB         0.0 MB |
|                                                                             |
| Requirements will fluctuate during execution and may exceed these estimates |
+-----------------------------------------------------------------------------+
------------------------------------------------------------------------ <-- SCF
SCF loop      Energy                           Energy gain       Timer   <-- SCF
                                               per atom          (sec)   <-- SCF
------------------------------------------------------------------------ <-- SCF
Initial   4.43561097E+002                                          0.15  <-- SCF
      1  -5.08169928E+002                    4.75865513E+002       0.29  <-- SCF
      2  -5.27063018E+002                    9.44654472E+000       0.44  <-- SCF
      3  -5.27578379E+002                    2.57680608E-001       0.58  <-- SCF
      4  -5.27589763E+002                    5.69195398E-003       0.73  <-- SCF
      5  -5.27590066E+002                    1.51724667E-004       0.88  <-- SCF
      6  -5.27590075E+002                    4.59932442E-006       1.02  <-- SCF
      7  -5.27590076E+002                    1.40227561E-007       1.16  <-- SCF
      8  -5.27590076E+002                    5.56331364E-009       1.33  <-- SCF
      9  -5.27590076E+002                    1.52358634E-010       1.60  <-- SCF
     10  -5.27590076E+002                   -4.83371300E-014       1.93  <-- SCF
     11  -5.27590076E+002                    5.80045560E-013       2.22  <-- SCF
------------------------------------------------------------------------ <-- SCF
 
Final energy =  -527.5900756052     eV
(energy not corrected for finite basis set)
 

Writing analysis data to N2-LDA-geom.castep_bin

Writing model to N2-LDA-geom.check
  +---------------- MEMORY AND SCRATCH DISK ESTIMATES PER PROCESS --------------+
  |                                                     Memory          Disk    |
  | Model and support data                               16.5 MB         0.0 MB |
  | TDDFT using Davidson solver                          52.0 MB         0.0 MB |
  |                                               ----------------------------- |
  | Approx. total storage required per process           68.5 MB         0.0 MB |
  |                                                                             |
  | Requirements will fluctuate during execution and may exceed these estimates |
  +-----------------------------------------------------------------------------+
  + ================================================================= +TDDFT
  +                                                                   +TDDFT
  +                  Time-Dependent DFT Calculation                   +TDDFT
  +                  ------------------------------                   +TDDFT
  +                                                                   +TDDFT
  +  NB: Calculating singlet states only                              +TDDFT
  +                                                                   +TDDFT
  +      TDDFT iteration:   1 of (up to)  50, Time:       2.69s       +TDDFT
  +      TDDFT iteration:   2 of (up to)  50, Time:       2.93s       +TDDFT
  +      TDDFT iteration:   3 of (up to)  50, Time:       3.17s       +TDDFT
  +      TDDFT iteration:   4 of (up to)  50, Time:       3.42s       +TDDFT
  +      TDDFT iteration:   5 of (up to)  50, Time:       3.66s       +TDDFT
  +      TDDFT iteration:   6 of (up to)  50, Time:       3.90s       +TDDFT
  +      TDDFT iteration:   7 of (up to)  50, Time:       4.14s       +TDDFT
  +      TDDFT iteration:   8 of (up to)  50, Time:       4.40s       +TDDFT
  +      TDDFT iteration:   9 of (up to)  50, Time:       4.64s       +TDDFT
  +      TDDFT iteration:  10 of (up to)  50, Time:       4.87s       +TDDFT
  +      TDDFT iteration:  11 of (up to)  50, Time:       4.94s       +TDDFT
  +                                                                   +TDDFT
  + ================================================================= +TDDFT
  +                     TDDFT excitation energies                     +TDDFT
  +                     -------------------------                     +TDDFT
  +   State number         Energy in   eV     Estimated error         +TDDFT
  + ================================================================= +TDDFT
  +                                                                   +TDDFT
  +         1     5.753505093792320   8.0755963559E-07     spurious   +TDDFT
  +                                                                   +TDDFT
  + ================================================================= +TDDFT
  +  TDDFT calculation time:       2.27                               +TDDFT
  + ================================================================= +TDDFT

Writing analysis data to N2-LDA-geom.castep_bin

Writing model to N2-LDA-geom.check
  
  *************************************************************************
  Note: One or more states have been marked as spurious.                   
  
        These states may not be true TDDFT states, yet are valid solutions 
        to the equations being solved.  A geometry optimisation, MD or     
        phonon calculation where the selected state is spurious may have   
        limited physical meaning.                                          
        Optical matrix elements / oscillator strengths should be negligible
        for spurious states.                                               
  *************************************************************************
  
 
Final energy for selected TDDFT state (   1) =  -521.8365705114     eV
(energy not corrected for finite basis set)
 
 
+---------------- MEMORY AND SCRATCH DISK ESTIMATES PER PROCESS --------------+
|                                                     Memory          Disk    |
| Model and support data                               16.5 MB         0.0 MB |
| Electronic energy minimisation requirements           2.1 MB         0.0 MB |
| Geometry minimisation requirements                    2.6 MB         0.0 MB |
|                                               ----------------------------- |
| Approx. total storage required per process           21.2 MB         0.0 MB |
|                                                                             |
| Requirements will fluctuate during execution and may exceed these estimates |
+-----------------------------------------------------------------------------+
 

 ******************************** TDDFT Forces ********************************
 *                                                                            *
 *                        Cartesian components (eV/A)                         *
 * -------------------------------------------------------------------------- *
 *                   x                    y                    z              *
 *                                                                            *
 * N         1      3.58544             -0.00000             -0.00000         *
 * N         2     -3.58544              0.00000              0.00000         *
 *                                                                            *
 ******************************************************************************
 BFGS: finished iteration     0 with enthalpy= -5.21836571E+002 eV
  
 +-----------+-----------------+-----------------+------------+-----+ <-- BFGS
 | Parameter |      value      |    tolerance    |    units   | OK? | <-- BFGS
 +-----------+-----------------+-----------------+------------+-----+ <-- BFGS
 |  dE/ion   |   0.000000E+000 |   5.000000E-005 |         eV | No  | <-- BFGS
 |  |F|max   |   3.585437E+000 |   5.000000E-002 |       eV/A | No  | <-- BFGS
 |  |dR|max  |   0.000000E+000 |   1.000000E-003 |          A | No  | <-- BFGS
 +-----------+-----------------+-----------------+------------+-----+ <-- BFGS
  

================================================================================
 Starting BFGS iteration          1 ...
================================================================================
  
 +------------+-------------+-------------+-----------------+ <-- min BFGS
 |    Step    |   lambda    |   F.delta'  |    enthalpy     | <-- min BFGS
 +------------+-------------+-------------+-----------------+ <-- min BFGS
 |  previous  |    0.000000 |    1.118041 |     -521.836571 | <-- min BFGS
 +------------+-------------+-------------+-----------------+ <-- min BFGS
  

--------------------------------------------------------------------------------
 BFGS: starting iteration         1 with trial guess (lambda=  1.000000)
--------------------------------------------------------------------------------

                           -------------------------------
                                     Cell Contents
                           -------------------------------

            xxxxxxxxxxxxxxxxxxxxxxxxxxxxxxxxxxxxxxxxxxxxxxxxxxxxxxxxxxxx
            x  Element    Atom        Fractional coordinates of atoms  x
            x            Number           u          v          w      x
            x----------------------------------------------------------x
            x  N            1         0.119054   0.000000   0.000000   x
            x  N            2        -0.119054  -0.000000  -0.000000   x
            xxxxxxxxxxxxxxxxxxxxxxxxxxxxxxxxxxxxxxxxxxxxxxxxxxxxxxxxxxxx


------------------------------------------------------------------------ <-- SCF
SCF loop      Energy                           Energy gain       Timer   <-- SCF
                                               per atom          (sec)   <-- SCF
------------------------------------------------------------------------ <-- SCF
Initial  -5.26063086E+002                                          5.25  <-- SCF
      1  -5.27112686E+002                    5.24800176E-001       5.40  <-- SCF
      2  -5.27112817E+002                    6.56439700E-005       5.55  <-- SCF
      3  -5.27112818E+002                    4.06745832E-008       5.79  <-- SCF
      4  -5.27112818E+002                    0.00000000E+000       6.13  <-- SCF
      5  -5.27112818E+002                    6.28382690E-013       6.44  <-- SCF
------------------------------------------------------------------------ <-- SCF
 
Final energy =  -527.1128175347     eV
(energy not corrected for finite basis set)
 
  +---------------- MEMORY AND SCRATCH DISK ESTIMATES PER PROCESS --------------+
  |                                                     Memory          Disk    |
  | Model and support data                               16.5 MB         0.0 MB |
  | TDDFT using Davidson solver                          52.0 MB         0.0 MB |
  |                                               ----------------------------- |
  | Approx. total storage required per process           68.5 MB         0.0 MB |
  |                                                                             |
  | Requirements will fluctuate during execution and may exceed these estimates |
  +-----------------------------------------------------------------------------+
  + ================================================================= +TDDFT
  +                                                                   +TDDFT
  +                  Time-Dependent DFT Calculation                   +TDDFT
  +                  ------------------------------                   +TDDFT
  +                                                                   +TDDFT
  +  NB: Calculating singlet states only                              +TDDFT
  +                                                                   +TDDFT
  +      TDDFT iteration:   1 of (up to)  50, Time:       6.89s       +TDDFT
  +      TDDFT iteration:   2 of (up to)  50, Time:       7.13s       +TDDFT
  +      TDDFT iteration:   3 of (up to)  50, Time:       7.37s       +TDDFT
  +      TDDFT iteration:   4 of (up to)  50, Time:       7.61s       +TDDFT
  +      TDDFT iteration:   5 of (up to)  50, Time:       7.85s       +TDDFT
  +      TDDFT iteration:   6 of (up to)  50, Time:       8.09s       +TDDFT
  +      TDDFT iteration:   7 of (up to)  50, Time:       8.34s       +TDDFT
  +      TDDFT iteration:   8 of (up to)  50, Time:       8.58s       +TDDFT
  +      TDDFT iteration:   9 of (up to)  50, Time:       8.82s       +TDDFT
  +      TDDFT iteration:  10 of (up to)  50, Time:       9.06s       +TDDFT
  +      TDDFT iteration:  11 of (up to)  50, Time:       9.30s       +TDDFT
  +      TDDFT iteration:  12 of (up to)  50, Time:       9.39s       +TDDFT
  +                                                                   +TDDFT
  + ================================================================= +TDDFT
  +                     TDDFT excitation energies                     +TDDFT
  +                     -------------------------                     +TDDFT
  +   State number         Energy in   eV     Estimated error         +TDDFT
  + ================================================================= +TDDFT
  +                                                                   +TDDFT
  +         1     5.186132748737439   8.8628215549E-07     spurious   +TDDFT
  +                                                                   +TDDFT
  + ================================================================= +TDDFT
  +  TDDFT calculation time:       2.51                               +TDDFT
  + ================================================================= +TDDFT

Writing analysis data to N2-LDA-geom.castep_bin

Writing model to N2-LDA-geom.check
  
  *************************************************************************
  Note: One or more states have been marked as spurious.                   
  
        These states may not be true TDDFT states, yet are valid solutions 
        to the equations being solved.  A geometry optimisation, MD or     
        phonon calculation where the selected state is spurious may have   
        limited physical meaning.                                          
        Optical matrix elements / oscillator strengths should be negligible
        for spurious states.                                               
  *************************************************************************
  
 
Final energy for selected TDDFT state (   1) =  -521.9266847859     eV
(energy not corrected for finite basis set)
 

 ******************************** TDDFT Forces ********************************
 *                                                                            *
 *                        Cartesian components (eV/A)                         *
 * -------------------------------------------------------------------------- *
 *                   x                    y                    z              *
 *                                                                            *
 * N         1      0.07022             -0.00000             -0.00000         *
 * N         2     -0.07022              0.00000              0.00000         *
 *                                                                            *
 ******************************************************************************
  
 +------------+-------------+-------------+-----------------+ <-- min BFGS
 |    Step    |   lambda    |   F.delta'  |    enthalpy     | <-- min BFGS
 +------------+-------------+-------------+-----------------+ <-- min BFGS
 |  previous  |    0.000000 |    1.118041 |     -521.836571 | <-- min BFGS
 | trial step |    1.000000 |    0.021898 |     -521.926685 | <-- min BFGS
 +------------+-------------+-------------+-----------------+ <-- min BFGS
  
 BFGS: finished iteration     1 with enthalpy= -5.21926685E+002 eV
  
 +-----------+-----------------+-----------------+------------+-----+ <-- BFGS
 | Parameter |      value      |    tolerance    |    units   | OK? | <-- BFGS
 +-----------+-----------------+-----------------+------------+-----+ <-- BFGS
 |  dE/ion   |   4.505714E-002 |   5.000000E-005 |         eV | No  | <-- BFGS
 |  |F|max   |   7.022378E-002 |   5.000000E-002 |       eV/A | No  | <-- BFGS
 |  |dR|max  |   2.502457E-002 |   1.000000E-003 |          A | No  | <-- BFGS
 +-----------+-----------------+-----------------+------------+-----+ <-- BFGS
  

================================================================================
 Starting BFGS iteration          2 ...
================================================================================
  
 +------------+-------------+-------------+-----------------+ <-- min BFGS
 |    Step    |   lambda    |   F.delta'  |    enthalpy     | <-- min BFGS
 +------------+-------------+-------------+-----------------+ <-- min BFGS
 |  previous  |    0.000000 |    0.021898 |     -521.926685 | <-- min BFGS
 +------------+-------------+-------------+-----------------+ <-- min BFGS
  

--------------------------------------------------------------------------------
 BFGS: starting iteration         2 with trial guess (lambda=  1.000000)
--------------------------------------------------------------------------------

                           -------------------------------
                                     Cell Contents
                           -------------------------------

            xxxxxxxxxxxxxxxxxxxxxxxxxxxxxxxxxxxxxxxxxxxxxxxxxxxxxxxxxxxx
            x  Element    Atom        Fractional coordinates of atoms  x
            x            Number           u          v          w      x
            x----------------------------------------------------------x
            x  N            1         0.119137   0.000000   0.000000   x
            x  N            2        -0.119137  -0.000000  -0.000000   x
            xxxxxxxxxxxxxxxxxxxxxxxxxxxxxxxxxxxxxxxxxxxxxxxxxxxxxxxxxxxx


------------------------------------------------------------------------ <-- SCF
SCF loop      Energy                           Energy gain       Timer   <-- SCF
                                               per atom          (sec)   <-- SCF
------------------------------------------------------------------------ <-- SCF
Initial  -5.27101648E+002                                          9.68  <-- SCF
      1  -5.27102064E+002                    2.07881274E-004       9.84  <-- SCF
      2  -5.27102064E+002                    2.99718242E-008      10.05  <-- SCF
      3  -5.27102064E+002                    0.00000000E+000      10.38  <-- SCF
      4  -5.27102064E+002                    0.00000000E+000      10.72  <-- SCF
------------------------------------------------------------------------ <-- SCF
 
Final energy =  -527.1020642833     eV
(energy not corrected for finite basis set)
 
  +---------------- MEMORY AND SCRATCH DISK ESTIMATES PER PROCESS --------------+
  |                                                     Memory          Disk    |
  | Model and support data                               16.5 MB         0.0 MB |
  | TDDFT using Davidson solver                          52.0 MB         0.0 MB |
  |                                               ----------------------------- |
  | Approx. total storage required per process           68.5 MB         0.0 MB |
  |                                                                             |
  | Requirements will fluctuate during execution and may exceed these estimates |
  +-----------------------------------------------------------------------------+
  + ================================================================= +TDDFT
  +                                                                   +TDDFT
  +                  Time-Dependent DFT Calculation                   +TDDFT
  +                  ------------------------------                   +TDDFT
  +                                                                   +TDDFT
  +  NB: Calculating singlet states only                              +TDDFT
  +                                                                   +TDDFT
  +      TDDFT iteration:   1 of (up to)  50, Time:      11.17s       +TDDFT
  +      TDDFT iteration:   2 of (up to)  50, Time:      11.41s       +TDDFT
  +      TDDFT iteration:   3 of (up to)  50, Time:      11.66s       +TDDFT
  +      TDDFT iteration:   4 of (up to)  50, Time:      11.90s       +TDDFT
  +      TDDFT iteration:   5 of (up to)  50, Time:      12.14s       +TDDFT
  +      TDDFT iteration:   6 of (up to)  50, Time:      12.38s       +TDDFT
  +      TDDFT iteration:   7 of (up to)  50, Time:      12.62s       +TDDFT
  +      TDDFT iteration:   8 of (up to)  50, Time:      12.86s       +TDDFT
  +      TDDFT iteration:   9 of (up to)  50, Time:      13.12s       +TDDFT
  +      TDDFT iteration:  10 of (up to)  50, Time:      13.24s       +TDDFT
  +                                                                   +TDDFT
  + ================================================================= +TDDFT
  +                     TDDFT excitation energies                     +TDDFT
  +                     -------------------------                     +TDDFT
  +   State number         Energy in   eV     Estimated error         +TDDFT
  + ================================================================= +TDDFT
  +                                                                   +TDDFT
  +         1     5.175340603221141   9.1877897916E-07     spurious   +TDDFT
  +                                                                   +TDDFT
  + ================================================================= +TDDFT
  +  TDDFT calculation time:       2.09                               +TDDFT
  + ================================================================= +TDDFT

Writing analysis data to N2-LDA-geom.castep_bin

Writing model to N2-LDA-geom.check
  
  *************************************************************************
  Note: One or more states have been marked as spurious.                   
  
        These states may not be true TDDFT states, yet are valid solutions 
        to the equations being solved.  A geometry optimisation, MD or     
        phonon calculation where the selected state is spurious may have   
        limited physical meaning.                                          
        Optical matrix elements / oscillator strengths should be negligible
        for spurious states.                                               
  *************************************************************************
  
 
Final energy for selected TDDFT state (   1) =  -521.9267236801     eV
(energy not corrected for finite basis set)
 

 ******************************** TDDFT Forces ********************************
 *                                                                            *
 *                        Cartesian components (eV/A)                         *
 * -------------------------------------------------------------------------- *
 *                   x                    y                    z              *
 *                                                                            *
 * N         1      0.00387             -0.00000             -0.00000         *
 * N         2     -0.00387              0.00000              0.00000         *
 *                                                                            *
 ******************************************************************************
  
 +------------+-------------+-------------+-----------------+ <-- min BFGS
 |    Step    |   lambda    |   F.delta'  |    enthalpy     | <-- min BFGS
 +------------+-------------+-------------+-----------------+ <-- min BFGS
 |  previous  |    0.000000 |    0.021898 |     -521.926685 | <-- min BFGS
 | trial step |    1.000000 |    0.001206 |     -521.926724 | <-- min BFGS
 +------------+-------------+-------------+-----------------+ <-- min BFGS
  
 BFGS: finished iteration     2 with enthalpy= -5.21926724E+002 eV
  
 +-----------+-----------------+-----------------+------------+-----+ <-- BFGS
 | Parameter |      value      |    tolerance    |    units   | OK? | <-- BFGS
 +-----------+-----------------+-----------------+------------+-----+ <-- BFGS
 |  dE/ion   |   1.944709E-005 |   5.000000E-005 |         eV | Yes | <-- BFGS
 |  |F|max   |   3.866054E-003 |   5.000000E-002 |       eV/A | Yes | <-- BFGS
 |  |dR|max  |   4.999184E-004 |   1.000000E-003 |          A | Yes | <-- BFGS
 +-----------+-----------------+-----------------+------------+-----+ <-- BFGS
  
 BFGS: Geometry optimization completed successfully.

================================================================================
 BFGS: Final Configuration:
================================================================================

                           -------------------------------
                                     Cell Contents
                           -------------------------------

            xxxxxxxxxxxxxxxxxxxxxxxxxxxxxxxxxxxxxxxxxxxxxxxxxxxxxxxxxxxx
            x  Element    Atom        Fractional coordinates of atoms  x
            x            Number           u          v          w      x
            x----------------------------------------------------------x
            x  N            1         0.119137   0.000000   0.000000   x
            x  N            2        -0.119137  -0.000000  -0.000000   x
            xxxxxxxxxxxxxxxxxxxxxxxxxxxxxxxxxxxxxxxxxxxxxxxxxxxxxxxxxxxx


 BFGS: Final Enthalpy     = -5.21926724E+002 eV
 BFGS: Final <frequency>  =   11800.02862 cm-1

 ************************** TDDFT Symmetrised Forces **************************
 *                                                                            *
 *                        Cartesian components (eV/A)                         *
 * -------------------------------------------------------------------------- *
 *                   x                    y                    z              *
 *                                                                            *
 * N         1      0.00387             -0.00000             -0.00000         *
 * N         2     -0.00387              0.00000              0.00000         *
 *                                                                            *
 ******************************************************************************

 Pseudo atomic calculation performed for N 2s2 2p3

 Converged in 41 iterations to a total energy of -256.4404 eV

Charge spilling parameter for spin component 1 = 1.06%

     Atomic Populations (Mulliken)
     -----------------------------
Species   Ion     s      p      d      f     Total  Charge (e)
==============================================================
  N        1     1.88   3.12   0.00   0.00   5.00     0.00
  N        2     1.88   3.12   0.00   0.00   5.00     0.00
==============================================================

            Bond              Population      Length (A)
============================================================
          N 1 -- N 2               1.06        1.42965
============================================================


Writing analysis data to N2-LDA-geom.castep_bin

Writing model to N2-LDA-geom.check
 
 A BibTeX formatted list of references used in this run has been written to 
 N2-LDA-geom.bib
 
Initialisation time =      0.12 s
Calculation time    =     13.86 s
Finalisation time   =      0.02 s
Total time          =     14.00 s
