 +-------------------------------------------------+
 |                                                 |
 |      CCC   AA    SSS  TTTTT  EEEEE  PPPP        |
 |     C     A  A  S       T    E      P   P       |
 |     C     AAAA   SS     T    EEE    PPPP        |
 |     C     A  A     S    T    E      P           |
 |      CCC  A  A  SSS     T    EEEEE  P           |
 |                                                 |
 +-------------------------------------------------+
 |                                                 |
 | Welcome to Academic Release CASTEP version 16.1 |          
 | Ab Initio Total Energy Program                  |
 |                                                 |
 | Authors:                                        |
 | M. Segall, M. Probert, C. Pickard, P. Hasnip,   |
 | S. Clark, K. Refson, J. R. Yates, M. Payne      |
 |                                                 |
 | Contributors:                                   |
 | P. Lindan, P. Haynes, J. White, V. Milman,      |
 | N. Govind, M. Gibson, P. Tulip, V. Cocula,      |
 | B. Montanari, D. Quigley, M. Glover,            |
 | L. Bernasconi, A. Perlov, M. Plummer,           |
 | E. McNellis, J. Meyer, J. Gale, D. Jochym       |
 | J. Aarons, B. Walker, R. Gillen, D. Jones       |
 | T. Green, I. J. Bush, C. J. Armstrong,          |
 | E. J. Higgins, E. L. Brown, M. S. McFly         |
 |                                                 |
 | Copyright (c) 2000 - 2015                       |
 |                                                 |
 |     Distributed under the terms of an           |
 |     Agreement between the United Kingdom        |
 |     Car-Parrinello (UKCP) Consortium,           |
 |     Daresbury Laboratory and Accelrys, Inc.     |
 |                                                 |
 | Please cite                                     |
 |                                                 |
 |     "First principles methods using CASTEP"     |
 |                                                 |
 |         Zeitschrift fuer Kristallographie       |
 |           220(5-6) pp. 567-570 (2005)           |
 |                                                 |
 | S. J. Clark, M. D. Segall, C. J. Pickard,       |
 | P. J. Hasnip, M. J. Probert, K. Refson,         |
 | M. C. Payne                                     |
 |                                                 |
 |       in all publications arising from          |
 |              your use of CASTEP                 |
 |                                                 |
 +-------------------------------------------------+


 Compiled for darwin_x86_64_gfortran5.0 on Fri, 19 Feb 2016 13:44:46 +0000
 from code version Version unavailable
 Compiler: GNU Fortran 5.3.0; Optimisation: intermediate
 MATHLIBS: default (LAPACK version 3.2.1)
 FFT Lib : default
 Fundamental constants values: CODATA 2010

 Run started: Wed, 27 Apr 2016 12:03:08 +0100
 +-------------------------------------------------+
 |                                                 |
 |  D D D D    F F F F F  P P P P     T T T T T    |
 |  D       D  F          P       P       T        |
 |  D       D  F F F F    P P P P         T        |
 |  D       D  F          P               T        |
 |  D D D D    F          P               T        |
 |                                                 |
 +-------------------------------------------------+
 |                                                 |
 | Welcome to Castep Linear Response (DFPT)        |
 |                                                 |
 | Copyright (c) 2006 - 2015                       |
 |                                                 |
 | Please cite the following publications in all   |
 | work arising from your use of CASTEP LR.        |
 |                                                 |
 | K. Refson, S. J. Clark and P. R. Tulip          |
 | Variational density functional perturbation     |
 | theory for dielectrics and lattice dynamics     |
 | Phys. Rev. B 73(15), 155114 (2006)              |
 +-------------------------------------------------+

 +---------------------------------------------------+
 |                                                   |
 |  Using DFT-SEDC - the DFT Semi-Empirical          |
 |  Dispersion interaction Correction module         |
 |  Copyright (c) 2008 Erik McNellis and Joerg Meyer |
 |  Fritz-Haber-Institut der MPG. Distributed under  |
 |  the GNU Lesser General Public License (LGPL).    |
 |                                                   |
 | Please cite the following publications in all     |
 | work arising from your use of CASTEP SEDC.        |
 |                                                   |
 | Erik R. McNellis, Joerg Meyer, and Karsten Reuter |
 | Phys. Rev. B 80, 205414 (2009)                    |
 +---------------------------------------------------+


 Pseudo atomic calculation performed for H 1s1

 Converged in 24 iterations to a total energy of -12.3900 eV


 Pseudo atomic calculation performed for N 2s2 2p3

 Converged in 36 iterations to a total energy of -260.1361 eV

 Calculation not parallelised.

 ************************************ Title ************************************
 

 ***************************** General Parameters ******************************
  
 output verbosity                               : normal  (1)
 write checkpoint data to                       : NH3-TS-PhonGamma-400.check
 type of calculation                            : phonon calculation
 stress calculation                             : off
 density difference calculation                 : off
 electron localisation func (ELF) calculation   : off
 Hirshfeld analysis                             : off
 unlimited duration calculation
 timing information                             : on
 memory usage estimate                          : on
 write final potential to formatted file        : off
 write final density to formatted file          : off
 write BibTeX reference list                    : on
 write OTFG pseudopotential files               : on
 checkpoint writing                             : both castep_bin and check files
  
 output         length unit                     : A
 output           mass unit                     : amu
 output           time unit                     : ps
 output         charge unit                     : e
 output           spin unit                     : hbar/2
 output         energy unit                     : eV
 output          force unit                     : eV/A
 output       velocity unit                     : A/ps
 output       pressure unit                     : GPa
 output     inv_length unit                     : 1/A
 output      frequency unit                     : cm-1
 output force constant unit                     : eV/A**2
 output         volume unit                     : A**3
 output   IR intensity unit                     : (D/A)**2/amu
 output         dipole unit                     : D
 output         efield unit                     : eV/A/e
 output        entropy unit                     : J/mol/K
  
 wavefunctions paging                           : none
 random number generator seed                   : randomised (120308539)
 data distribution                              : optimal for this architecture
 optimization strategy                          : balance speed and memory

 *********************** Exchange-Correlation Parameters ***********************
  
 using functional                               : Perdew Burke Ernzerhof
 relativistic treatment                         : Koelling-Harmon
 DFT+D: Semi-empirical dispersion correction    : on
 SEDC with                                      : TS correction scheme

 ************************* Pseudopotential Parameters **************************
  
 pseudopotential representation                 : reciprocal space
 <beta|phi> representation                      : reciprocal space
 spin-orbit coupling                            : off

 **************************** Basis Set Parameters *****************************
  
 plane wave basis set cut-off                   :   400.0000   eV
 size of standard grid                          :     1.7500
 size of   fine   gmax                          :    17.9311   1/A
 finite basis set correction                    : none

 **************************** Electronic Parameters ****************************
  
 number of  electrons                           :  32.00    
 net charge of system                           :  0.000    
 treating system as non-spin-polarized
 number of bands                                :         16

 ********************* Electronic Minimization Parameters **********************
  
 Method: Treating system as non-metallic,
         and number of  SD  steps               :          1
         and number of  CG  steps               :          4
  
 total energy / atom convergence tol.           : 0.2219E-09   eV
 eigen-energy convergence tolerance             : 0.2219E-09   eV
 max force / atom convergence tol.              : ignored
 convergence tolerance window                   :          3   cycles
 max. number of SCF cycles                      :         30
 periodic dipole correction                     : NONE

 ************************** Density Mixing Parameters **************************
  
 density-mixing scheme                          : Broyden
 max. length of mixing history                  :         20
 charge density mixing amplitude                : 0.8000    
 cut-off energy for mixing                      :  400.0       eV

 *********************** Population Analysis Parameters ************************
  
 Population analysis with cutoff                :  3.000       A

 ****************************** Phonon Parameters ******************************
  
 phonon calculation method                      : linear response
 phonon convergence tolerance                   : 0.1000E-04   eV/A**2
 max. number of phonon cycles                   :         50
 max. number of phonon CG steps                 :          0
 convergence tolerance window                   :          2   cycles
 DFPT solver method                             : AllBands (Gonze variational method)
 preconditioning scheme                         : TPA     
 fine phonon calculation method                 : none
 LO/TO splitting term                           : included
 acoustic phonon sum rule                       : correct D(q) in recip-space
 Born effective charges                         : calculated
 Born charge sum rule                           : explicitly enforced
 Raman intensities                              : not calculated
 phonon k-points                                : use reduced set
 phonon DOS                                     : not calculated
 no timed backups
 band convergence tolerance                     : 0.1000E-08   eV

 *******************************************************************************
  

                           -------------------------------
                                      Unit Cell
                           -------------------------------
        Real Lattice(A)                      Reciprocal Lattice(1/A)
   5.1300000   0.0000000   0.0000000        1.2247925   0.0000000   0.0000000
   0.0000000   5.1300000   0.0000000        0.0000000   1.2247925   0.0000000
   0.0000000   0.0000000   5.1300000        0.0000000   0.0000000   1.2247925

                       Lattice parameters(A)       Cell Angles
                    a =    5.130000          alpha =   90.000000
                    b =    5.130000          beta  =   90.000000
                    c =    5.130000          gamma =   90.000000

                       Current cell volume =  135.005697       A**3

                           -------------------------------
                                     Cell Contents
                           -------------------------------
                         Total number of ions in cell =   16
                      Total number of species in cell =    2
                        Max number of any one species =   12

            xxxxxxxxxxxxxxxxxxxxxxxxxxxxxxxxxxxxxxxxxxxxxxxxxxxxxxxxxxxx
            x  Element    Atom        Fractional coordinates of atoms  x
            x            Number           u          v          w      x
            x----------------------------------------------------------x
            x  H            1         0.376712   0.271595   0.111892   x 
            x  H            2         0.271595   0.111892   0.376712   x 
            x  H            3         0.123288   0.728405   0.611892   x 
            x  H            4         0.611892   0.123288   0.728405   x 
            x  H            5         0.888108   0.876712   0.228405   x 
            x  H            6         0.111892   0.376712   0.271595   x 
            x  H            7         0.228405   0.888108   0.876712   x 
            x  H            8         0.623288   0.771595   0.388108   x 
            x  H            9         0.388108   0.623288   0.771595   x 
            x  H           10         0.876712   0.228405   0.888108   x 
            x  H           11         0.771595   0.388108   0.623288   x 
            x  H           12         0.728405   0.611892   0.123288   x 
            x  N            1         0.208861   0.208861   0.208861   x 
            x  N            2         0.291139   0.791139   0.708861   x 
            x  N            3         0.708861   0.291139   0.791139   x 
            x  N            4         0.791139   0.708861   0.291139   x 
            xxxxxxxxxxxxxxxxxxxxxxxxxxxxxxxxxxxxxxxxxxxxxxxxxxxxxxxxxxxx


                         No user defined ionic velocities

                           -------------------------------
                                   Details of Species
                           -------------------------------

                               Mass of species in AMU
                                    H    1.0079400
                                    N   14.0067400

                          Electric Quadrupole Moment (Barn)
                                    H    0.0028600 Isotope  2
                                    N    0.0204400 Isotope 14

                          Files used for pseudopotentials:
                                    H h-optgga1.recpot
                                    N n-optgga1.recpot

                           -------------------------------
                              k-Points For BZ Sampling
                           -------------------------------
                       MP grid size for SCF calculation is  2  2  2
                            with an offset of   0.000  0.000  0.000
                       Number of kpoints used =             1

                           -------------------------------
                               Symmetry and Constraints
                           -------------------------------

                      Maximum deviation from symmetry = 0.590902E-14     ANG

                      Number of symmetry operations   =          12
                      Number of ionic constraints     =           3
                      Point group of crystal =    28: T, 23, 2 3
                      Space group of crystal =   198: P2_13, P 2ac 2ab 3

             Set iprint > 1 for details on symmetry rotations/translations

                         Centre of mass is constrained
             Set iprint > 1 for details of linear ionic constraints

                         Number of cell constraints= 6
                         Cell constraints are:  0 0 0 0 0 0

                         External pressure/stress (GPa)
                          0.00000   0.00000   0.00000
                                    0.00000   0.00000
                                              0.00000

                                --------------------
                                  DFT-D parameters
                                --------------------

                          Dispersion-correction scheme : TS                                                                              
                        Parameter sR :   0.940000 (default)
                        Parameter d  :  20.000000 (default)

        xxxxxxxxxxxxxxxxxxxxxxxxxxxxxxxxxxxxxxxxxxxxxxxxxxxxxxxxxxxxxxxxxxxx
        x              Atomic DFT-D parameters                             x
        x  Species      C6            alpha        R0                      x
        x               eV A^6        A^3          A                       x
        x------------------------------------------------------------------x
        x  H             3.8839       0.6668       1.6404   (default)      x
        x  N            14.4601       1.0966       1.7675   (default)      x
        xxxxxxxxxxxxxxxxxxxxxxxxxxxxxxxxxxxxxxxxxxxxxxxxxxxxxxxxxxxxxxxxxxxx

  
+---------------- MEMORY AND SCRATCH DISK ESTIMATES PER PROCESS --------------+
|                                                     Memory          Disk    |
| Baseline code, static data and system overhead        0.0 MB         0.0 MB |
| BLAS internal memory storage                          0.0 MB         0.0 MB |
| Model and support data                                8.3 MB         0.0 MB |
| Electronic energy minimisation requirements           6.4 MB         0.0 MB |
| Force calculation requirements                        3.1 MB         0.0 MB |
|                                               ----------------------------- |
| Approx. total storage required per process           14.7 MB         0.0 MB |
|                                                                             |
| Requirements will fluctuate during execution and may exceed these estimates |
+-----------------------------------------------------------------------------+
------------------------------------------------------------------------ <-- SCF
SCF loop      Energy                           Energy gain       Timer   <-- SCF
                                               per atom          (sec)   <-- SCF
------------------------------------------------------------------------ <-- SCF
Initial  -5.76963165E+001                                          0.30  <-- SCF
      1  -1.14178432E+003                    6.77555002E+001       0.39  <-- SCF
      2  -1.27190131E+003                    8.13231173E+000       0.47  <-- SCF
      3  -1.27620073E+003                    2.68714097E-001       0.54  <-- SCF
      4  -1.26893642E+003                   -4.54019409E-001       0.65  <-- SCF
      5  -1.26748268E+003                   -9.08587624E-002       0.77  <-- SCF
      6  -1.26758522E+003                    6.40844481E-003       0.88  <-- SCF
      7  -1.26759800E+003                    7.98863871E-004       0.99  <-- SCF
      8  -1.26760237E+003                    2.73047917E-004       1.11  <-- SCF
      9  -1.26760222E+003                   -9.46884448E-006       1.23  <-- SCF
     10  -1.26760231E+003                    5.72076822E-006       1.38  <-- SCF
     11  -1.26760232E+003                    4.92733018E-007       1.50  <-- SCF
     12  -1.26760232E+003                    2.28708750E-007       1.61  <-- SCF
     13  -1.26760232E+003                    1.42307169E-008       1.72  <-- SCF
     14  -1.26760232E+003                    1.98087976E-009       1.82  <-- SCF
     15  -1.26760232E+003                    1.62400673E-010       1.90  <-- SCF
     16  -1.26760232E+003                   -2.18846356E-011       1.99  <-- SCF
------------------------------------------------------------------------ <-- SCF
 
Final energy =  -1267.602319763     eV
(energy not corrected for finite basis set)
 
 WARNING: Your unit cell might be too small to get accurate results for van der Waals

Dispersion corrected final energy* =  -1268.252629053     eV

 * not corrected for finite basis set


Writing analysis data to NH3-TS-PhonGamma-400.castep_bin

Writing model to NH3-TS-PhonGamma-400.check

 Efield perturbation    1:  X                                             2.59s
  +---------------- MEMORY AND SCRATCH DISK ESTIMATES PER PROCESS --------------+
  |                                                     Memory          Disk    |
  | Baseline code, static data and system overhead        0.0 MB         0.0 MB |
  | BLAS internal memory storage                          0.0 MB         0.0 MB |
  | Model and support data                                8.4 MB         0.0 MB |
  | DFPT E-field response requirements                   11.5 MB         0.0 MB |
  |                                               ----------------------------- |
  | Approx. total storage required per process           19.9 MB         0.0 MB |
  |                                                                             |
  | Requirements will fluctuate during execution and may exceed these estimates |
  +-----------------------------------------------------------------------------+
 Perturbation    1 (of    4): H     1 X at q=( 0.000, 0.000, 0.000):      6.83s
  +---------------- MEMORY AND SCRATCH DISK ESTIMATES PER PROCESS --------------+
  |                                                     Memory          Disk    |
  | Baseline code, static data and system overhead        0.0 MB         0.0 MB |
  | BLAS internal memory storage                          0.0 MB         0.0 MB |
  | Model and support data                                8.4 MB         0.0 MB |
  | DFPT phonon calculation requirements                 27.3 MB         0.0 MB |
  |                                               ----------------------------- |
  | Approx. total storage required per process           35.7 MB         0.0 MB |
  |                                                                             |
  | Requirements will fluctuate during execution and may exceed these estimates |
  +-----------------------------------------------------------------------------+
 Perturbation    2 (of    4): N     1 X at q=( 0.000, 0.000, 0.000):     13.92s
 Perturbation    3 (of    4): H     1 Y at q=( 0.000, 0.000, 0.000):     20.98s
 Perturbation    4 (of    4): H     1 Z at q=( 0.000, 0.000, 0.000):     26.40s

 Phonon calculation: q-point   1 (of    1) ( 0.000, 0.000, 0.000):       32.28s
 -------------------------------------------------------------------------------
 
 ==============================================================================
 +                           Vibrational Frequencies                          +
 +                           -----------------------                          +
 +                                                                            +
 + Performing frequency calculation at  1 wavevector  (q-pt )                 +
 + ========================================================================== +
 +                                                                            +
 + -------------------------------------------------------------------------- +
 +  q-pt=    1 (  0.000000  0.000000  0.000000)     1.0000000000              +
 + -------------------------------------------------------------------------- +
 +  Acoustic sum rule correction <  93.618029 cm-1 applied                    +
 +     N      Frequency irrep.    ir intensity active            raman active + 
 +                (cm-1)         ((D/A)**2/amu)                               + 
 +                                                                            +
 +     1      -0.071362   a          0.0000000  N                       N     + 
 +     2      -0.071362   a          0.0000000  N                       N     + 
 +     3      -0.071362   a          0.0000000  N                       N     + 
 +     4     152.759190   b          0.0000000  N                       Y     + 
 +     5     152.759190   b          0.0000000  N                       Y     + 
 +     6     175.760516   c          0.0000000  N                       Y     + 
 +     7     202.808409   a          0.1182702  Y                       Y     + 
 +     8     202.808409   a          0.1182702  Y                       Y     + 
 +     9     202.808409   a          0.1182702  Y                       Y     + 
 +    10     253.573543   a          0.1263468  Y                       Y     + 
 +    11     253.573543   a          0.1263468  Y                       Y     + 
 +    12     253.573543   a          0.1263468  Y                       Y     + 
 +    13     308.917161   a          0.0739302  Y                       Y     + 
 +    14     308.917161   a          0.0739302  Y                       Y     + 
 +    15     308.917161   a          0.0739302  Y                       Y     + 
 +    16     356.273083   c          0.0000000  N                       Y     + 
 +    17     357.988799   b          0.0000000  N                       Y     + 
 +    18     357.988799   b          0.0000000  N                       Y     + 
 +    19     419.497606   a          8.5416693  Y                       Y     + 
 +    20     419.497606   a          8.5416693  Y                       Y     + 
 +    21     419.497606   a          8.5416693  Y                       Y     + 
 +    22     589.162356   a          0.4973430  Y                       Y     + 
 +    23     589.162356   a          0.4973430  Y                       Y     + 
 +    24     589.162356   a          0.4973430  Y                       Y     + 
 +    25    1091.368112   a          4.2860660  Y                       Y     + 
 +    26    1091.368112   a          4.2860660  Y                       Y     + 
 +    27    1091.368112   a          4.2860660  Y                       Y     + 
 +    28    1109.115793   c          0.0000000  N                       Y     + 
 +    29    1568.941604   b          0.0000000  N                       Y     + 
 +    30    1568.941604   b          0.0000000  N                       Y     + 
 +    31    1588.314061   a          0.5468602  Y                       Y     + 
 +    32    1588.314061   a          0.5468602  Y                       Y     + 
 +    33    1588.314061   a          0.5468602  Y                       Y     + 
 +    34    1634.018933   a          0.0139181  Y                       Y     + 
 +    35    1634.018933   a          0.0139181  Y                       Y     + 
 +    36    1634.018933   a          0.0139181  Y                       Y     + 
 +    37    3247.743067   c          0.0000000  N                       Y     + 
 +    38    3256.751649   a          0.6800456  Y                       Y     + 
 +    39    3256.751649   a          0.6800456  Y                       Y     + 
 +    40    3256.751649   a          0.6800456  Y                       Y     + 
 +    41    3376.297675   a          5.6675550  Y                       Y     + 
 +    42    3376.297675   a          5.6675550  Y                       Y     + 
 +    43    3376.297675   a          5.6675550  Y                       Y     + 
 +    44    3377.147220   b          0.0000000  N                       Y     + 
 +    45    3377.147220   b          0.0000000  N                       Y     + 
 +    46    3390.998019   a          9.7323152  Y                       Y     + 
 +    47    3390.998019   a          9.7323152  Y                       Y     + 
 +    48    3390.998019   a          9.7323152  Y                       Y     + 
 + .......................................................................... +
 +        Character table from group theory analysis of eigenvectors          +
 +                           Point Group =  28, T                             +
 + .......................................................................... +
 +  Rep  Mul |    E   2   3   3                                               +
 +           | ----------------                                               +
 + a T    12 |    3  -1   0   0                                               +
 + b E     4 |    2   2  -1  -1                                               +
 + c A     4 |    1   1   1   1                                               +
 + -------------------------------------------------------------------------- +
 +  q-pt=    1 (  0.000000  0.000000  0.000000)     1.0000000000              +
 +  q->0 along (  0.000000  0.000000  1.000000)                               +
 + -------------------------------------------------------------------------- +
 +  Acoustic sum rule correction <  93.618029 cm-1 applied                    +
 +     N      Frequency irrep.    ir intensity active            raman active + 
 +                (cm-1)         ((D/A)**2/amu)                               + 
 +                                                                            +
 +     1      -0.071362   a          0.0000000  N                       N     + 
 +     2      -0.071362   a          0.0000000  N                       N     + 
 +     3      14.232656   b          0.0000000  N                       N     + 
 +     4     152.759190   c          0.0000000  N                       Y     + 
 +     5     152.759190   c          0.0000000  N                       Y     + 
 +     6     175.760516   d          0.0000000  N                       Y     + 
 +     7     202.808409   a          0.1182702  Y                       Y     + 
 +     8     202.808409   a          0.1182702  Y                       Y     + 
 +     9     204.138465   b          0.0498100  Y                       Y     + 
 +    10     253.573543   a          0.1263468  Y                       Y     + 
 +    11     253.573543   a          0.1263468  Y                       Y     + 
 +    12     254.689132   b          0.0511362  Y                       Y     + 
 +    13     308.917161   a          0.0739302  Y                       Y     + 
 +    14     308.917161   a          0.0739302  Y                       Y     + 
 +    15     309.396770   b          0.0239224  Y                       Y     + 
 +    16     356.273083   d          0.0000000  N                       Y     + 
 +    17     357.988799   c          0.0000000  N                       Y     + 
 +    18     357.988799   c          0.0000000  N                       Y     + 
 +    19     419.497606   a          8.5416693  Y                       Y     + 
 +    20     419.497606   a          8.5416693  Y                       Y     + 
 +    21     482.478225   b          7.4557888  Y                       Y     + 
 +    22     589.162356   a          0.4973430  Y                       Y     + 
 +    23     589.162356   a          0.4973430  Y                       Y     + 
 +    24     593.408455   b          1.0068013  Y                       Y     + 
 +    25    1091.368112   a          4.2860660  Y                       Y     + 
 +    26    1091.368112   a          4.2860660  Y                       Y     + 
 +    27    1105.827171   b          4.7340425  Y                       Y     + 
 +    28    1109.115793   d          0.0000000  N                       Y     + 
 +    29    1568.941604   c          0.0000000  N                       Y     + 
 +    30    1568.941604   c          0.0000000  N                       Y     + 
 +    31    1588.314061   a          0.5468602  Y                       Y     + 
 +    32    1588.314061   a          0.5468602  Y                       Y     + 
 +    33    1589.573551   b          0.5901187  Y                       Y     + 
 +    34    1634.018933   a          0.0139181  Y                       Y     + 
 +    35    1634.018933   a          0.0139181  Y                       Y     + 
 +    36    1634.050860   b          0.0157586  Y                       Y     + 
 +    37    3247.743067   d          0.0000000  N                       Y     + 
 +    38    3256.751649   a          0.6800456  Y                       Y     + 
 +    39    3256.751649   a          0.6800456  Y                       Y     + 
 +    40    3257.409632   b          0.5439599  Y                       Y     + 
 +    41    3376.297675   a          5.6675550  Y                       Y     + 
 +    42    3376.297675   a          5.6675550  Y                       Y     + 
 +    43    3377.147220   c          0.0000000  N                       Y     + 
 +    44    3377.147220   c          0.0000000  N                       Y     + 
 +    45    3379.469675   b          1.4452208  Y                       Y     + 
 +    46    3390.998019   a          9.7323152  Y                       Y     + 
 +    47    3390.998019   a          9.7323152  Y                       Y     + 
 +    48    3404.040080   b         14.3887360  Y                       Y     + 
 + .......................................................................... +
 +        Character table from group theory analysis of eigenvectors          +
 +                           Point Group =  28, T                             +
 + (Due to LO/TO splitting this character table may not contain some symmetry +
 +  operations of the full crystallographic point group.  Additional          +
 +  representations may be also be present corresponding to split LO modes.   +
 +  A conventional analysis can be generated by specifying an additional null +
 +  (all zero) field direction or one along any unique crystallographic axis  +
 +  in %BLOCK PHONON_GAMMA_DIRECTIONS in <seedname>.cell.)                    +
 + .......................................................................... +
 +  Rep  Mul |    E   2   2   2                                               +
 +           | ----------------                                               +
 + a E    12 |    2  -2   0   0                                               +
 + b B1   12 |    1   1  -1  -1                                               +
 + c E     4 |    2   2   2   2                                               +
 + d A     4 |    1   1   1   1                                               +
 ==============================================================================
 ===================================================
                   Born Effective Charges
                   ----------------------
   H       1         0.24589     0.00022    -0.09965
                    -0.00899     0.16169     0.02630
                    -0.16777    -0.01988     0.39822
   H       2         0.16169     0.02630    -0.00899
                    -0.01988     0.39822    -0.16777
                     0.00022    -0.09965     0.24589
   H       3         0.24589     0.00022     0.09965
                    -0.00899     0.16169    -0.02630
                     0.16777     0.01988     0.39822
   H       4         0.39822     0.16777     0.01988
                     0.09965     0.24589     0.00022
                    -0.02630    -0.00899     0.16169
   H       5         0.39822     0.16777    -0.01988
                     0.09965     0.24589    -0.00022
                     0.02630     0.00899     0.16169
   H       6         0.39822    -0.16777    -0.01988
                    -0.09965     0.24589     0.00022
                     0.02630    -0.00899     0.16169
   H       7         0.16169     0.02630     0.00899
                    -0.01988     0.39822     0.16777
                    -0.00022     0.09965     0.24589
   H       8         0.24589    -0.00022    -0.09965
                     0.00899     0.16169    -0.02630
                    -0.16777     0.01988     0.39822
   H       9         0.39822    -0.16777     0.01988
                    -0.09965     0.24589    -0.00022
                    -0.02630     0.00899     0.16169
   H      10         0.24589    -0.00022     0.09965
                     0.00899     0.16169     0.02630
                     0.16777    -0.01988     0.39822
   H      11         0.16169    -0.02630     0.00899
                     0.01988     0.39822    -0.16777
                    -0.00022    -0.09965     0.24589
   H      12         0.16169    -0.02630    -0.00899
                     0.01988     0.39822     0.16777
                     0.00022     0.09965     0.24589
   N       1        -0.80580     0.01753     0.02439
                     0.02439    -0.80580     0.01753
                     0.01753     0.02439    -0.80580
   N       2        -0.80580     0.01753    -0.02439
                     0.02439    -0.80580    -0.01753
                    -0.01753    -0.02439    -0.80580
   N       3        -0.80580    -0.01753    -0.02439
                    -0.02439    -0.80580     0.01753
                    -0.01753     0.02439    -0.80580
   N       4        -0.80580    -0.01753     0.02439
                    -0.02439    -0.80580    -0.01753
                     0.01753    -0.02439    -0.80580
 ===================================================

 ***************** Symmetrised Forces *****************
 *                                                    *
 *            Cartesian components (eV/A)             *
 * -------------------------------------------------- *
 *                   x            y            z      *
 *                                                    *
 * H         1     -0.00256      0.00022     -0.00044 *
 * H         2      0.00022     -0.00044     -0.00256 *
 * H         3      0.00256     -0.00022     -0.00044 *
 * H         4     -0.00044      0.00256     -0.00022 *
 * H         5      0.00044     -0.00256     -0.00022 *
 * H         6     -0.00044     -0.00256      0.00022 *
 * H         7     -0.00022      0.00044     -0.00256 *
 * H         8      0.00256      0.00022      0.00044 *
 * H         9      0.00044      0.00256      0.00022 *
 * H        10     -0.00256     -0.00022      0.00044 *
 * H        11      0.00022      0.00044      0.00256 *
 * H        12     -0.00022     -0.00044      0.00256 *
 * N         1     -0.00074     -0.00074     -0.00074 *
 * N         2      0.00074      0.00074     -0.00074 *
 * N         3     -0.00074      0.00074      0.00074 *
 * N         4      0.00074     -0.00074      0.00074 *
 *                                                    *
 ******************************************************

 Pseudo atomic calculation performed for H 1s1

 Converged in 24 iterations to a total energy of -12.3900 eV


 Pseudo atomic calculation performed for N 2s2 2p3

 Converged in 36 iterations to a total energy of -260.1361 eV

Charge spilling parameter for spin component 1 = 1.36%

     Atomic Populations (Mulliken)
     -----------------------------
Species   Ion     s      p      d      f     Total  Charge (e)
==============================================================
  H        1     0.63   0.00   0.00   0.00   0.63     0.37
  H        2     0.63   0.00   0.00   0.00   0.63     0.37
  H        3     0.63   0.00   0.00   0.00   0.63     0.37
  H        4     0.63   0.00   0.00   0.00   0.63     0.37
  H        5     0.63   0.00   0.00   0.00   0.63     0.37
  H        6     0.63   0.00   0.00   0.00   0.63     0.37
  H        7     0.63   0.00   0.00   0.00   0.63     0.37
  H        8     0.63   0.00   0.00   0.00   0.63     0.37
  H        9     0.63   0.00   0.00   0.00   0.63     0.37
  H       10     0.63   0.00   0.00   0.00   0.63     0.37
  H       11     0.63   0.00   0.00   0.00   0.63     0.37
  H       12     0.63   0.00   0.00   0.00   0.63     0.37
  N        1     1.70   4.42   0.00   0.00   6.12    -1.12
  N        2     1.70   4.42   0.00   0.00   6.12    -1.12
  N        3     1.70   4.42   0.00   0.00   6.12    -1.12
  N        4     1.70   4.42   0.00   0.00   6.12    -1.12
==============================================================

            Bond              Population      Length (A)
============================================================
         H 11 -- N 3               0.67        1.04522
         H 10 -- N 3               0.67        1.04522
         H 9  -- N 2               0.67        1.04522
         H 8  -- N 4               0.67        1.04522
         H 7  -- N 2               0.67        1.04522
         H 5  -- N 4               0.67        1.04522
         H 12 -- N 4               0.67        1.04522
         H 4  -- N 3               0.67        1.04522
         H 3  -- N 2               0.67        1.04522
         H 6  -- N 1               0.67        1.04522
         H 2  -- N 1               0.67        1.04522
         H 1  -- N 1               0.67        1.04522
         H 10 -- H 11             -0.12        1.67559
         H 7  -- H 9              -0.12        1.67559
         H 5  -- H 8              -0.12        1.67559
         H 3  -- H 7              -0.12        1.67559
         H 5  -- H 12             -0.12        1.67559
         H 4  -- H 10             -0.12        1.67559
         H 8  -- H 12             -0.12        1.67559
         H 4  -- H 11             -0.12        1.67559
         H 3  -- H 9              -0.12        1.67559
         H 2  -- H 6              -0.12        1.67559
         H 1  -- H 6              -0.12        1.67559
         H 1  -- H 2              -0.12        1.67559
         H 6  -- N 4               0.02        2.37086
         H 2  -- N 2               0.02        2.37086
         H 1  -- N 3               0.02        2.37086
         H 12 -- N 3               0.02        2.37086
         H 4  -- N 2               0.02        2.37086
         H 3  -- N 4               0.02        2.37086
         H 11 -- N 4               0.02        2.37086
         H 10 -- N 1               0.02        2.37086
         H 9  -- N 3               0.02        2.37086
         H 8  -- N 2               0.02        2.37086
         H 7  -- N 1               0.02        2.37086
         H 5  -- N 1               0.02        2.37086
         H 10 -- H 12             -0.02        2.42995
         H 4  -- H 7              -0.02        2.42995
         H 3  -- H 5              -0.02        2.42995
         H 6  -- H 12             -0.02        2.42995
         H 2  -- H 3              -0.02        2.42995
         H 1  -- H 4              -0.02        2.42995
         H 9  -- H 11             -0.02        2.42995
         H 8  -- H 11             -0.02        2.42995
         H 8  -- H 9              -0.02        2.42995
         H 6  -- H 10             -0.02        2.42995
         H 2  -- H 5              -0.02        2.42995
         H 1  -- H 7              -0.02        2.42995
         H 3  -- H 6              -0.01        2.51119
         H 2  -- H 4              -0.01        2.51119
         H 1  -- H 12             -0.01        2.51119
         H 9  -- H 12             -0.01        2.51119
         H 4  -- H 8              -0.01        2.51119
         H 3  -- H 11             -0.01        2.51119
         H 6  -- H 11             -0.01        2.51119
         H 2  -- H 8              -0.01        2.51119
         H 1  -- H 9              -0.01        2.51119
         H 7  -- H 10             -0.01        2.51119
         H 5  -- H 10             -0.01        2.51119
         H 5  -- H 7              -0.01        2.51119
         H 5  -- H 6              -0.01        2.81891
         H 4  -- H 9              -0.01        2.81891
         H 3  -- H 8              -0.01        2.81891
         H 2  -- H 7              -0.01        2.81891
         H 1  -- H 10             -0.01        2.81891
         H 11 -- H 12             -0.01        2.81891
============================================================


Writing analysis data to NH3-TS-PhonGamma-400.castep_bin

Writing model to NH3-TS-PhonGamma-400.check
 
 A BibTeX formatted list of references used in this run has been written to 
 NH3-TS-PhonGamma-400.bib
 
Initialisation time =      0.23 s
Calculation time    =     32.31 s
Finalisation time   =      0.03 s
Total time          =     32.58 s
