 +-------------------------------------------------+
 |                                                 |
 |      CCC   AA    SSS  TTTTT  EEEEE  PPPP        |
 |     C     A  A  S       T    E      P   P       |
 |     C     AAAA   SS     T    EEE    PPPP        |
 |     C     A  A     S    T    E      P           |
 |      CCC  A  A  SSS     T    EEEEE  P           |
 |                                                 |
 +-------------------------------------------------+
 |                                                 |
 | Welcome to Academic Release CASTEP version 16.1 |          
 | Ab Initio Total Energy Program                  |
 |                                                 |
 | Authors:                                        |
 | M. Segall, M. Probert, C. Pickard, P. Hasnip,   |
 | S. Clark, K. Refson, J. R. Yates, M. Payne      |
 |                                                 |
 | Contributors:                                   |
 | P. Lindan, P. Haynes, J. White, V. Milman,      |
 | N. Govind, M. Gibson, P. Tulip, V. Cocula,      |
 | B. Montanari, D. Quigley, M. Glover,            |
 | L. Bernasconi, A. Perlov, M. Plummer,           |
 | E. McNellis, J. Meyer, J. Gale, D. Jochym       |
 | J. Aarons, B. Walker, R. Gillen, D. Jones       |
 | T. Green, I. J. Bush, C. J. Armstrong,          |
 | E. J. Higgins, E. L. Brown, M. S. McFly         |
 |                                                 |
 | Copyright (c) 2000 - 2015                       |
 |                                                 |
 |     Distributed under the terms of an           |
 |     Agreement between the United Kingdom        |
 |     Car-Parrinello (UKCP) Consortium,           |
 |     Daresbury Laboratory and Accelrys, Inc.     |
 |                                                 |
 | Please cite                                     |
 |                                                 |
 |     "First principles methods using CASTEP"     |
 |                                                 |
 |         Zeitschrift fuer Kristallographie       |
 |           220(5-6) pp. 567-570 (2005)           |
 |                                                 |
 | S. J. Clark, M. D. Segall, C. J. Pickard,       |
 | P. J. Hasnip, M. J. Probert, K. Refson,         |
 | M. C. Payne                                     |
 |                                                 |
 |       in all publications arising from          |
 |              your use of CASTEP                 |
 |                                                 |
 +-------------------------------------------------+


 Compiled for darwin_x86_64_gfortran5.0 on Fri, 19 Feb 2016 13:44:46 +0000
 from code version Version unavailable
 Compiler: GNU Fortran 5.3.0; Optimisation: intermediate
 MATHLIBS: default (LAPACK version 3.2.1)
 FFT Lib : default
 Fundamental constants values: CODATA 2010

 Run started: Mon, 11 Apr 2016 14:25:47 +0100

 Pseudo atomic calculation performed for Si 3s2 3p2

 Converged in 15 iterations to a total energy of -102.9121 eV

 Calculation not parallelised.

 ************************************ Title ************************************
 

 ***************************** General Parameters ******************************
  
 output verbosity                               : normal  (1)
 write checkpoint data to                       : si2-bfgs.check
 type of calculation                            : geometry optimization
 stress calculation                             : off
 density difference calculation                 : off
 electron localisation func (ELF) calculation   : off
 Hirshfeld analysis                             : off
 unlimited duration calculation
 timing information                             : on
 memory usage estimate                          : on
 write final potential to formatted file        : off
 write final density to formatted file          : off
 write BibTeX reference list                    : on
 write OTFG pseudopotential files               : on
 checkpoint writing                             : both castep_bin and check files
  
 output         length unit                     : A
 output           mass unit                     : amu
 output           time unit                     : ps
 output         charge unit                     : e
 output           spin unit                     : hbar/2
 output         energy unit                     : eV
 output          force unit                     : eV/A
 output       velocity unit                     : A/ps
 output       pressure unit                     : GPa
 output     inv_length unit                     : 1/A
 output      frequency unit                     : cm-1
 output force constant unit                     : eV/A**2
 output         volume unit                     : A**3
 output   IR intensity unit                     : (D/A)**2/amu
 output         dipole unit                     : D
 output         efield unit                     : eV/A/e
 output        entropy unit                     : J/mol/K
  
 wavefunctions paging                           : none
 random number generator seed                   :  214708793
 data distribution                              : optimal for this architecture
 optimization strategy                          : maximize speed(+++)

 *********************** Exchange-Correlation Parameters ***********************
  
 using functional                               : Perdew Burke Ernzerhof
 relativistic treatment                         : Koelling-Harmon
 DFT+D: Semi-empirical dispersion correction    : off

 ************************* Pseudopotential Parameters **************************
  
 pseudopotential representation                 : reciprocal space
 <beta|phi> representation                      : reciprocal space
 spin-orbit coupling                            : off

 **************************** Basis Set Parameters *****************************
  
 basis set accuracy                             : FINE
 plane wave basis set cut-off                   :   160.0000   eV
 size of standard grid                          :     1.7500
 size of   fine   gmax                          :    11.3406   1/A
 finite basis set correction                    : none

 **************************** Electronic Parameters ****************************
  
 number of  electrons                           :  8.000    
 net charge of system                           :  0.000    
 treating system as non-spin-polarized
 number of bands                                :         10

 ********************* Electronic Minimization Parameters **********************
  
 Method: Treating system as metallic with density mixing treatment of electrons,
         and number of  SD  steps               :          1
         and number of  CG  steps               :          4
  
 total energy / atom convergence tol.           : 0.1000E-04   eV
 eigen-energy convergence tolerance             : 0.1000E-05   eV
 max force / atom convergence tol.              : ignored
 convergence tolerance window                   :          3   cycles
 max. number of SCF cycles                      :         30
 number of fixed-spin iterations                :         10
 smearing scheme                                : Gaussian
 smearing width                                 : 0.2000       eV
 Fermi energy convergence tolerance             : 0.2721E-13   eV
 periodic dipole correction                     : NONE

 ************************** Density Mixing Parameters **************************
  
 density-mixing scheme                          : Pulay
 max. length of mixing history                  :         20
 charge density mixing amplitude                : 0.8000    

 *********************** Population Analysis Parameters ************************
  
 Population analysis with cutoff                :  3.000       A

 ********************** Geometry Optimization Parameters ***********************
  
 optimization method                            : BFGS
 variable cell method                           : fixed basis quality
 max. number of steps                           :         30
 estimated bulk modulus                         :  500.0       GPa
 estimated <frequency>                          :  1668.       cm-1
 geom line minimiser                            : on
 with line minimiser tolerance                  :     0.4000
 total energy convergence tolerance             : 0.2000E-04   eV/atom
        max ionic |force| tolerance             : 0.5000E-01   eV/A
 max ionic |displacement| tolerance             : 0.1000E-02   A
   max |stress component| tolerance             : 0.1000       GPa
 convergence tolerance window                   :          2   steps
 backup results every                           :          5   steps

 *******************************************************************************
  

                           -------------------------------
                                      Unit Cell
                           -------------------------------
        Real Lattice(A)                      Reciprocal Lattice(1/A)
   0.0000000   2.6870058   2.6870058       -1.1691797   1.1691797   1.1691797
   2.6870058   0.0000000   2.6870058        1.1691797  -1.1691797   1.1691797
   2.6870058   2.6870058   0.0000000        1.1691797   1.1691797  -1.1691797

                       Lattice parameters(A)       Cell Angles
                    a =    3.800000          alpha =   60.000000
                    b =    3.800000          beta  =   60.000000
                    c =    3.800000          gamma =   60.000000

                       Current cell volume =   38.800363       A**3

                           -------------------------------
                                     Cell Contents
                           -------------------------------
                         Total number of ions in cell =    2
                      Total number of species in cell =    1
                        Max number of any one species =    2

            xxxxxxxxxxxxxxxxxxxxxxxxxxxxxxxxxxxxxxxxxxxxxxxxxxxxxxxxxxxx
            x  Element    Atom        Fractional coordinates of atoms  x
            x            Number           u          v          w      x
            x----------------------------------------------------------x
            x  Si           1         0.000000   0.000000   0.000000   x 
            x  Si           2         0.240000   0.250000   0.250000   x 
            xxxxxxxxxxxxxxxxxxxxxxxxxxxxxxxxxxxxxxxxxxxxxxxxxxxxxxxxxxxx


                         No user defined ionic velocities

                           -------------------------------
                                   Details of Species
                           -------------------------------

                               Mass of species in AMU
                                    Si   28.0855000

                          Electric Quadrupole Moment (Barn)
                                    Si    1.0000000 No Isotope Defined

                          Files used for pseudopotentials:
                                    Si Si_00.usp

                           -------------------------------
                              k-Points For BZ Sampling
                           -------------------------------
                       MP grid size for SCF calculation is  4  4  4
                            with an offset of   0.000  0.000  0.000
                       Number of kpoints used =            32

                           -------------------------------
                               Symmetry and Constraints
                           -------------------------------

                      Maximum deviation from symmetry =  0.00000         ANG

         There are no symmetry operations specified or generated for this cell
                      Number of ionic constraints     =           3
                      Point group of crystal =     1: C1, 1, 1
                      Space group of crystal =    12: C2/m, -C 2y


                         Centre of mass is constrained
             Set iprint > 1 for details of linear ionic constraints

                         Number of cell constraints= 6
                         Cell constraints are:  0 0 0 0 0 0

                         External pressure/stress (GPa)
                          0.00000   0.00000   0.00000
                                    0.00000   0.00000
                                              0.00000
  
+---------------- MEMORY AND SCRATCH DISK ESTIMATES PER PROCESS --------------+
|                                                     Memory          Disk    |
| Baseline code, static data and system overhead        0.0 MB         0.0 MB |
| BLAS internal memory storage                          0.0 MB         0.0 MB |
| Model and support data                                5.1 MB         0.0 MB |
| Electronic energy minimisation requirements           2.3 MB         0.0 MB |
| Force calculation requirements                        0.4 MB         0.0 MB |
|                                               ----------------------------- |
| Approx. total storage required per process            7.5 MB         0.0 MB |
|                                                                             |
| Requirements will fluctuate during execution and may exceed these estimates |
+-----------------------------------------------------------------------------+
------------------------------------------------------------------------ <-- SCF
SCF loop      Energy           Fermi           Energy gain       Timer   <-- SCF
                               energy          per atom          (sec)   <-- SCF
------------------------------------------------------------------------ <-- SCF
Initial   9.24881297E+001  0.00000000E+000                         0.23  <-- SCF
      1  -1.96371757E+002  8.31419851E+000   1.44429944E+002       0.50  <-- SCF
      2  -2.16671357E+002  6.53393388E+000   1.01497999E+001       0.70  <-- SCF
      3  -2.17138143E+002  6.42397398E+000   2.33392934E-001       0.89  <-- SCF
      4  -2.16991654E+002  6.66550430E+000  -7.32447191E-002       1.12  <-- SCF
      5  -2.16984019E+002  6.79115385E+000  -3.81744862E-003       1.37  <-- SCF
      6  -2.16985609E+002  6.80824113E+000   7.94949152E-004       1.60  <-- SCF
      7  -2.16985624E+002  6.81072801E+000   7.85074468E-006       1.81  <-- SCF
      8  -2.16985625E+002  6.81067648E+000   1.99852583E-007       1.96  <-- SCF
------------------------------------------------------------------------ <-- SCF
 
Final energy, E             =  -216.9856218269     eV
Final free energy (E-TS)    =  -216.9856246740     eV
(energies not corrected for finite basis set)
 
NB est. 0K energy (E-0.5TS)      =  -216.9856232504     eV
 

Writing analysis data to si2-bfgs.castep_bin

Writing model to si2-bfgs.check
 
+---------------- MEMORY AND SCRATCH DISK ESTIMATES PER PROCESS --------------+
|                                                     Memory          Disk    |
| Model and support data                               16.0 MB         0.0 MB |
| Electronic energy minimisation requirements           2.3 MB         0.0 MB |
| Geometry minimisation requirements                    3.4 MB         0.0 MB |
|                                               ----------------------------- |
| Approx. total storage required per process           21.8 MB         0.0 MB |
|                                                                             |
| Requirements will fluctuate during execution and may exceed these estimates |
+-----------------------------------------------------------------------------+
 

 *********************************** Forces ***********************************
 *                                                                            *
 *                        Cartesian components (eV/A)                         *
 * -------------------------------------------------------------------------- *
 *                   x                    y                    z              *
 *                                                                            *
 * Si        1     -0.08392             -0.46106             -0.46106         *
 * Si        2      0.08392              0.46106              0.46106         *
 *                                                                            *
 ******************************************************************************
 BFGS: finished iteration     0 with enthalpy= -2.16985625E+002 eV
  
 +-----------+-----------------+-----------------+------------+-----+ <-- BFGS
 | Parameter |      value      |    tolerance    |    units   | OK? | <-- BFGS
 +-----------+-----------------+-----------------+------------+-----+ <-- BFGS
 |  dE/ion   |   0.000000E+000 |   2.000000E-005 |         eV | No  | <-- BFGS
 |  |F|max   |   6.574181E-001 |   5.000000E-002 |       eV/A | No  | <-- BFGS
 |  |dR|max  |   0.000000E+000 |   1.000000E-003 |          A | No  | <-- BFGS
 +-----------+-----------------+-----------------+------------+-----+ <-- BFGS
  

================================================================================
 Starting BFGS iteration          1 ...
================================================================================
  
 +------------+-------------+-------------+-----------------+ <-- min BFGS
 |    Step    |   lambda    |   F.delta'  |    enthalpy     | <-- min BFGS
 +------------+-------------+-------------+-----------------+ <-- min BFGS
 |  previous  |    0.000000 |    0.142588 |     -216.985625 | <-- min BFGS
 +------------+-------------+-------------+-----------------+ <-- min BFGS
  

--------------------------------------------------------------------------------
 BFGS: starting iteration         1 with trial guess (lambda=  1.000000)
--------------------------------------------------------------------------------

                           -------------------------------
                                     Cell Contents
                           -------------------------------

            xxxxxxxxxxxxxxxxxxxxxxxxxxxxxxxxxxxxxxxxxxxxxxxxxxxxxxxxxxxx
            x  Element    Atom        Fractional coordinates of atoms  x
            x            Number           u          v          w      x
            x----------------------------------------------------------x
            x  Si           1        -0.000543  -0.000054  -0.000054   x
            x  Si           2         0.240543   0.250054   0.250054   x
            xxxxxxxxxxxxxxxxxxxxxxxxxxxxxxxxxxxxxxxxxxxxxxxxxxxxxxxxxxxx


------------------------------------------------------------------------ <-- SCF
SCF loop      Energy           Fermi           Energy gain       Timer   <-- SCF
                               energy          per atom          (sec)   <-- SCF
------------------------------------------------------------------------ <-- SCF
Initial  -2.16985981E+002  0.00000000E+000                         2.02  <-- SCF
      1  -2.16988520E+002  6.80014459E+000   1.26918029E-003       2.24  <-- SCF
      2  -2.16988520E+002  6.80014448E+000   3.78680291E-007       2.41  <-- SCF
      3  -2.16988521E+002  6.80073349E+000   2.99568119E-007       2.56  <-- SCF
      4  -2.16988521E+002  6.80081381E+000   6.69238925E-008       2.70  <-- SCF
------------------------------------------------------------------------ <-- SCF
 
Final energy, E             =  -216.9885187527     eV
Final free energy (E-TS)    =  -216.9885211132     eV
(energies not corrected for finite basis set)
 
NB est. 0K energy (E-0.5TS)      =  -216.9885199330     eV
 

 *********************************** Forces ***********************************
 *                                                                            *
 *                        Cartesian components (eV/A)                         *
 * -------------------------------------------------------------------------- *
 *                   x                    y                    z              *
 *                                                                            *
 * Si        1     -0.07231             -0.42752             -0.42752         *
 * Si        2      0.07231              0.42752              0.42752         *
 *                                                                            *
 ******************************************************************************
  
 +------------+-------------+-------------+-----------------+ <-- min BFGS
 |    Step    |   lambda    |   F.delta'  |    enthalpy     | <-- min BFGS
 +------------+-------------+-------------+-----------------+ <-- min BFGS
 |  previous  |    0.000000 |    0.142588 |     -216.985625 | <-- min BFGS
 | trial step |    1.000000 |    0.132064 |     -216.988521 | <-- min BFGS
 +------------+-------------+-------------+-----------------+ <-- min BFGS
  

--------------------------------------------------------------------------------
 BFGS: improving iteration         1 with line minimization (lambda= 13.548427)
--------------------------------------------------------------------------------

                           -------------------------------
                                     Cell Contents
                           -------------------------------

            xxxxxxxxxxxxxxxxxxxxxxxxxxxxxxxxxxxxxxxxxxxxxxxxxxxxxxxxxxxx
            x  Element    Atom        Fractional coordinates of atoms  x
            x            Number           u          v          w      x
            x----------------------------------------------------------x
            x  Si           1        -0.007356  -0.000736  -0.000736   x
            x  Si           2         0.247356   0.250736   0.250736   x
            xxxxxxxxxxxxxxxxxxxxxxxxxxxxxxxxxxxxxxxxxxxxxxxxxxxxxxxxxxxx


------------------------------------------------------------------------ <-- SCF
SCF loop      Energy           Fermi           Energy gain       Timer   <-- SCF
                               energy          per atom          (sec)   <-- SCF
------------------------------------------------------------------------ <-- SCF
Initial  -2.17016932E+002  0.00000000E+000                         2.74  <-- SCF
      1  -2.17003354E+002  6.68682218E+000  -6.78906189E-003       2.95  <-- SCF
      2  -2.17003488E+002  6.68680755E+000   6.71121227E-005       3.19  <-- SCF
      3  -2.17003540E+002  6.69134602E+000   2.61806087E-005       3.41  <-- SCF
      4  -2.17003559E+002  6.69197168E+000   9.12562592E-006       3.56  <-- SCF
      5  -2.17003559E+002  6.69186122E+000   4.73129847E-007       3.70  <-- SCF
------------------------------------------------------------------------ <-- SCF
 
Final energy, E             =  -217.0035587868     eV
Final free energy (E-TS)    =  -217.0035594510     eV
(energies not corrected for finite basis set)
 
NB est. 0K energy (E-0.5TS)      =  -217.0035591189     eV
 

 *********************************** Forces ***********************************
 *                                                                            *
 *                        Cartesian components (eV/A)                         *
 * -------------------------------------------------------------------------- *
 *                   x                    y                    z              *
 *                                                                            *
 * Si        1      0.00579              0.11330              0.11330         *
 * Si        2     -0.00579             -0.11330             -0.11330         *
 *                                                                            *
 ******************************************************************************
  
 +------------+-------------+-------------+-----------------+ <-- min BFGS
 |    Step    |   lambda    |   F.delta'  |    enthalpy     | <-- min BFGS
 +------------+-------------+-------------+-----------------+ <-- min BFGS
 |  previous  |    0.000000 |    0.142588 |     -216.985625 | <-- min BFGS
 | trial step |    1.000000 |    0.132064 |     -216.988521 | <-- min BFGS
 |  line step |   13.548427 |   -0.034628 |     -217.003559 | <-- min BFGS
 +------------+-------------+-------------+-----------------+ <-- min BFGS
  
 BFGS: finished iteration     1 with enthalpy= -2.17003559E+002 eV
  
 +-----------+-----------------+-----------------+------------+-----+ <-- BFGS
 | Parameter |      value      |    tolerance    |    units   | OK? | <-- BFGS
 +-----------+-----------------+-----------------+------------+-----+ <-- BFGS
 |  dE/ion   |   8.967388E-003 |   2.000000E-005 |         eV | No  | <-- BFGS
 |  |F|max   |   1.603340E-001 |   5.000000E-002 |       eV/A | No  | <-- BFGS
 |  |dR|max  |   3.100344E-002 |   1.000000E-003 |          A | No  | <-- BFGS
 +-----------+-----------------+-----------------+------------+-----+ <-- BFGS
  

================================================================================
 Starting BFGS iteration          2 ...
================================================================================
  
 +------------+-------------+-------------+-----------------+ <-- min BFGS
 |    Step    |   lambda    |   F.delta'  |    enthalpy     | <-- min BFGS
 +------------+-------------+-------------+-----------------+ <-- min BFGS
 |  previous  |    0.000000 |    0.034473 |     -217.003559 | <-- min BFGS
 +------------+-------------+-------------+-----------------+ <-- min BFGS
  

--------------------------------------------------------------------------------
 BFGS: starting iteration         2 with trial guess (lambda=  1.000000)
--------------------------------------------------------------------------------

                           -------------------------------
                                     Cell Contents
                           -------------------------------

            xxxxxxxxxxxxxxxxxxxxxxxxxxxxxxxxxxxxxxxxxxxxxxxxxxxxxxxxxxxx
            x  Element    Atom        Fractional coordinates of atoms  x
            x            Number           u          v          w      x
            x----------------------------------------------------------x
            x  Si           1        -0.005910  -0.000600  -0.000600   x
            x  Si           2         0.245910   0.250600   0.250600   x
            xxxxxxxxxxxxxxxxxxxxxxxxxxxxxxxxxxxxxxxxxxxxxxxxxxxxxxxxxxxx


------------------------------------------------------------------------ <-- SCF
SCF loop      Energy           Fermi           Energy gain       Timer   <-- SCF
                               energy          per atom          (sec)   <-- SCF
------------------------------------------------------------------------ <-- SCF
Initial  -2.17003934E+002  0.00000000E+000                         3.75  <-- SCF
      1  -2.17004281E+002  6.70919589E+000   1.73733692E-004       3.96  <-- SCF
      2  -2.17004286E+002  6.70919524E+000   2.69420511E-006       4.17  <-- SCF
      3  -2.17004289E+002  6.70807574E+000   1.45558749E-006       4.32  <-- SCF
      4  -2.17004290E+002  6.70794335E+000   5.21309942E-007       4.46  <-- SCF
------------------------------------------------------------------------ <-- SCF
 
Final energy, E             =  -217.0042897860     eV
Final free energy (E-TS)    =  -217.0042904056     eV
(energies not corrected for finite basis set)
 
NB est. 0K energy (E-0.5TS)      =  -217.0042900958     eV
 

 *********************************** Forces ***********************************
 *                                                                            *
 *                        Cartesian components (eV/A)                         *
 * -------------------------------------------------------------------------- *
 *                   x                    y                    z              *
 *                                                                            *
 * Si        1     -0.00270             -0.02610             -0.02610         *
 * Si        2      0.00270              0.02610              0.02610         *
 *                                                                            *
 ******************************************************************************
  
 +------------+-------------+-------------+-----------------+ <-- min BFGS
 |    Step    |   lambda    |   F.delta'  |    enthalpy     | <-- min BFGS
 +------------+-------------+-------------+-----------------+ <-- min BFGS
 |  previous  |    0.000000 |    0.034473 |     -217.003559 | <-- min BFGS
 | trial step |    1.000000 |   -0.007977 |     -217.004290 | <-- min BFGS
 +------------+-------------+-------------+-----------------+ <-- min BFGS
  
 BFGS: finished iteration     2 with enthalpy= -2.17004290E+002 eV
  
 +-----------+-----------------+-----------------+------------+-----+ <-- BFGS
 | Parameter |      value      |    tolerance    |    units   | OK? | <-- BFGS
 +-----------+-----------------+-----------------+------------+-----+ <-- BFGS
 |  dE/ion   |   3.654773E-004 |   2.000000E-005 |         eV | No  | <-- BFGS
 |  |F|max   |   3.700906E-002 |   5.000000E-002 |       eV/A | Yes | <-- BFGS
 |  |dR|max  |   6.057502E-003 |   1.000000E-003 |          A | No  | <-- BFGS
 +-----------+-----------------+-----------------+------------+-----+ <-- BFGS
  

================================================================================
 Starting BFGS iteration          3 ...
================================================================================
  
 +------------+-------------+-------------+-----------------+ <-- min BFGS
 |    Step    |   lambda    |   F.delta'  |    enthalpy     | <-- min BFGS
 +------------+-------------+-------------+-----------------+ <-- min BFGS
 |  previous  |    0.000000 |    0.007996 |     -217.004290 | <-- min BFGS
 +------------+-------------+-------------+-----------------+ <-- min BFGS
  

--------------------------------------------------------------------------------
 BFGS: starting iteration         3 with trial guess (lambda=  1.000000)
--------------------------------------------------------------------------------

                           -------------------------------
                                     Cell Contents
                           -------------------------------

            xxxxxxxxxxxxxxxxxxxxxxxxxxxxxxxxxxxxxxxxxxxxxxxxxxxxxxxxxxxx
            x  Element    Atom        Fractional coordinates of atoms  x
            x            Number           u          v          w      x
            x----------------------------------------------------------x
            x  Si           1        -0.006181  -0.000626  -0.000626   x
            x  Si           2         0.246181   0.250626   0.250626   x
            xxxxxxxxxxxxxxxxxxxxxxxxxxxxxxxxxxxxxxxxxxxxxxxxxxxxxxxxxxxx


------------------------------------------------------------------------ <-- SCF
SCF loop      Energy           Fermi           Energy gain       Timer   <-- SCF
                               energy          per atom          (sec)   <-- SCF
------------------------------------------------------------------------ <-- SCF
Initial  -2.17004397E+002  0.00000000E+000                         4.51  <-- SCF
      1  -2.17004334E+002  6.70433917E+000  -3.11333900E-005       4.72  <-- SCF
      2  -2.17004334E+002  6.70433915E+000   9.06274664E-008       4.87  <-- SCF
      3  -2.17004335E+002  6.70454706E+000   3.47791089E-008       5.01  <-- SCF
      4  -2.17004335E+002  6.70457345E+000   1.82511094E-008       5.15  <-- SCF
------------------------------------------------------------------------ <-- SCF
 
Final energy, E             =  -217.0043339589     eV
Final free energy (E-TS)    =  -217.0043345764     eV
(energies not corrected for finite basis set)
 
NB est. 0K energy (E-0.5TS)      =  -217.0043342677     eV
 

 *********************************** Forces ***********************************
 *                                                                            *
 *                        Cartesian components (eV/A)                         *
 * -------------------------------------------------------------------------- *
 *                   x                    y                    z              *
 *                                                                            *
 * Si        1     -0.00085             -0.00083             -0.00083         *
 * Si        2      0.00085              0.00083              0.00083         *
 *                                                                            *
 ******************************************************************************
  
 +------------+-------------+-------------+-----------------+ <-- min BFGS
 |    Step    |   lambda    |   F.delta'  |    enthalpy     | <-- min BFGS
 +------------+-------------+-------------+-----------------+ <-- min BFGS
 |  previous  |    0.000000 |    0.007996 |     -217.004290 | <-- min BFGS
 | trial step |    1.000000 |    0.000274 |     -217.004335 | <-- min BFGS
 +------------+-------------+-------------+-----------------+ <-- min BFGS
  
 BFGS: finished iteration     3 with enthalpy= -2.17004335E+002 eV
  
 +-----------+-----------------+-----------------+------------+-----+ <-- BFGS
 | Parameter |      value      |    tolerance    |    units   | OK? | <-- BFGS
 +-----------+-----------------+-----------------+------------+-----+ <-- BFGS
 |  dE/ion   |   2.208539E-005 |   2.000000E-005 |         eV | No  | <-- BFGS
 |  |F|max   |   1.447839E-003 |   5.000000E-002 |       eV/A | Yes | <-- BFGS
 |  |dR|max  |   1.138593E-003 |   1.000000E-003 |          A | No  | <-- BFGS
 +-----------+-----------------+-----------------+------------+-----+ <-- BFGS
  

================================================================================
 Starting BFGS iteration          4 ...
================================================================================
  
 +------------+-------------+-------------+-----------------+ <-- min BFGS
 |    Step    |   lambda    |   F.delta'  |    enthalpy     | <-- min BFGS
 +------------+-------------+-------------+-----------------+ <-- min BFGS
 |  previous  |    0.000000 |    0.000299 |     -217.004335 | <-- min BFGS
 +------------+-------------+-------------+-----------------+ <-- min BFGS
  

--------------------------------------------------------------------------------
 BFGS: starting iteration         4 with trial guess (lambda=  1.000000)
--------------------------------------------------------------------------------

                           -------------------------------
                                     Cell Contents
                           -------------------------------

            xxxxxxxxxxxxxxxxxxxxxxxxxxxxxxxxxxxxxxxxxxxxxxxxxxxxxxxxxxxx
            x  Element    Atom        Fractional coordinates of atoms  x
            x            Number           u          v          w      x
            x----------------------------------------------------------x
            x  Si           1        -0.006190  -0.000628  -0.000628   x
            x  Si           2         0.246190   0.250628   0.250628   x
            xxxxxxxxxxxxxxxxxxxxxxxxxxxxxxxxxxxxxxxxxxxxxxxxxxxxxxxxxxxx


------------------------------------------------------------------------ <-- SCF
SCF loop      Energy           Fermi           Energy gain       Timer   <-- SCF
                               energy          per atom          (sec)   <-- SCF
------------------------------------------------------------------------ <-- SCF
Initial  -2.17004348E+002  0.00000000E+000                         5.20  <-- SCF
      1  -2.17004335E+002  6.70443286E+000  -6.91192129E-006       5.33  <-- SCF
      2  -2.17004335E+002  6.70443286E+000   1.85231508E-009       5.47  <-- SCF
      3  -2.17004335E+002  6.70443863E+000   4.26526835E-010       5.61  <-- SCF
      4  -2.17004335E+002  6.70444062E+000   6.03247383E-011       5.76  <-- SCF
------------------------------------------------------------------------ <-- SCF
 
Final energy, E             =  -217.0043340089     eV
Final free energy (E-TS)    =  -217.0043346263     eV
(energies not corrected for finite basis set)
 
NB est. 0K energy (E-0.5TS)      =  -217.0043343176     eV
 

 *********************************** Forces ***********************************
 *                                                                            *
 *                        Cartesian components (eV/A)                         *
 * -------------------------------------------------------------------------- *
 *                   x                    y                    z              *
 *                                                                            *
 * Si        1     -0.00068              0.00014              0.00014         *
 * Si        2      0.00068             -0.00014             -0.00014         *
 *                                                                            *
 ******************************************************************************
  
 +------------+-------------+-------------+-----------------+ <-- min BFGS
 |    Step    |   lambda    |   F.delta'  |    enthalpy     | <-- min BFGS
 +------------+-------------+-------------+-----------------+ <-- min BFGS
 |  previous  |    0.000000 |    0.000299 |     -217.004335 | <-- min BFGS
 | trial step |    1.000000 |   -0.000015 |     -217.004335 | <-- min BFGS
 +------------+-------------+-------------+-----------------+ <-- min BFGS
  
 BFGS: finished iteration     4 with enthalpy= -2.17004335E+002 eV
  
 +-----------+-----------------+-----------------+------------+-----+ <-- BFGS
 | Parameter |      value      |    tolerance    |    units   | OK? | <-- BFGS
 +-----------+-----------------+-----------------+------------+-----+ <-- BFGS
 |  dE/ion   |   2.493995E-008 |   2.000000E-005 |         eV | Yes | <-- BFGS
 |  |F|max   |   7.072198E-004 |   5.000000E-002 |       eV/A | Yes | <-- BFGS
 |  |dR|max  |   4.070627E-005 |   1.000000E-003 |          A | Yes | <-- BFGS
 +-----------+-----------------+-----------------+------------+-----+ <-- BFGS
  
 BFGS: Geometry optimization completed successfully.

================================================================================
 BFGS: Final Configuration:
================================================================================

                           -------------------------------
                                     Cell Contents
                           -------------------------------

            xxxxxxxxxxxxxxxxxxxxxxxxxxxxxxxxxxxxxxxxxxxxxxxxxxxxxxxxxxxx
            x  Element    Atom        Fractional coordinates of atoms  x
            x            Number           u          v          w      x
            x----------------------------------------------------------x
            x  Si           1        -0.006190  -0.000628  -0.000628   x
            x  Si           2         0.246190   0.250628   0.250628   x
            xxxxxxxxxxxxxxxxxxxxxxxxxxxxxxxxxxxxxxxxxxxxxxxxxxxxxxxxxxxx


 BFGS: Final Enthalpy     = -2.17004335E+002 eV
 BFGS: Final <frequency>  unchanged from initial value

 *********************************** Forces ***********************************
 *                                                                            *
 *                        Cartesian components (eV/A)                         *
 * -------------------------------------------------------------------------- *
 *                   x                    y                    z              *
 *                                                                            *
 * Si        1     -0.00068              0.00014              0.00014         *
 * Si        2      0.00068             -0.00014             -0.00014         *
 *                                                                            *
 ******************************************************************************

 Pseudo atomic calculation performed for Si 3s2 3p2

 Converged in 15 iterations to a total energy of -102.9121 eV

Charge spilling parameter for spin component 1 = 1.15%

     Atomic Populations (Mulliken)
     -----------------------------
Species   Ion     s      p      d      f     Total  Charge (e)
==============================================================
  Si       1     1.36   2.64   0.00   0.00   4.00     0.00
  Si       2     1.36   2.64   0.00   0.00   4.00    -0.00
==============================================================

            Bond              Population      Length (A)
============================================================
         Si 1 -- Si 2              2.96        2.31967
============================================================


Writing analysis data to si2-bfgs.castep_bin

Writing model to si2-bfgs.check
 
 A BibTeX formatted list of references used in this run has been written to 
 si2-bfgs.bib
 
Initialisation time =      0.15 s
Calculation time    =      5.71 s
Finalisation time   =      0.03 s
Total time          =      5.88 s
