 +-------------------------------------------------+
 |                                                 |
 |      CCC   AA    SSS  TTTTT  EEEEE  PPPP        |
 |     C     A  A  S       T    E      P   P       |
 |     C     AAAA   SS     T    EEE    PPPP        |
 |     C     A  A     S    T    E      P           |
 |      CCC  A  A  SSS     T    EEEEE  P           |
 |                                                 |
 +-------------------------------------------------+
 |                                                 |
 | Welcome to Academic Release CASTEP version 16.1 |          
 | Ab Initio Total Energy Program                  |
 |                                                 |
 | Authors:                                        |
 | M. Segall, M. Probert, C. Pickard, P. Hasnip,   |
 | S. Clark, K. Refson, J. R. Yates, M. Payne      |
 |                                                 |
 | Contributors:                                   |
 | P. Lindan, P. Haynes, J. White, V. Milman,      |
 | N. Govind, M. Gibson, P. Tulip, V. Cocula,      |
 | B. Montanari, D. Quigley, M. Glover,            |
 | L. Bernasconi, A. Perlov, M. Plummer,           |
 | E. McNellis, J. Meyer, J. Gale, D. Jochym       |
 | J. Aarons, B. Walker, R. Gillen, D. Jones       |
 | T. Green, I. J. Bush, C. J. Armstrong,          |
 | E. J. Higgins, E. L. Brown, M. S. McFly         |
 |                                                 |
 | Copyright (c) 2000 - 2015                       |
 |                                                 |
 |     Distributed under the terms of an           |
 |     Agreement between the United Kingdom        |
 |     Car-Parrinello (UKCP) Consortium,           |
 |     Daresbury Laboratory and Accelrys, Inc.     |
 |                                                 |
 | Please cite                                     |
 |                                                 |
 |     "First principles methods using CASTEP"     |
 |                                                 |
 |         Zeitschrift fuer Kristallographie       |
 |           220(5-6) pp. 567-570 (2005)           |
 |                                                 |
 | S. J. Clark, M. D. Segall, C. J. Pickard,       |
 | P. J. Hasnip, M. J. Probert, K. Refson,         |
 | M. C. Payne                                     |
 |                                                 |
 |       in all publications arising from          |
 |              your use of CASTEP                 |
 |                                                 |
 +-------------------------------------------------+


 Compiled for darwin_x86_64_gfortran4.9 on Tue, 15 Dec 2015 16:29:18 +0000
 from code version b833c1ffcd7d+  Fri, 13 Jun 2014 17:24:31 +0100
 Compiler: GNU Fortran 4.9.1; Optimisation: intermediate
 MATHLIBS: default (LAPACK version 3.2.1)
 FFT Lib : default
 Fundamental constants values: CODATA 2010

 Run started: Wed, 27 Jan 2016 11:01:28 +0100

 ******************************* User Parameters *******************************
iprint                : 2             # verbosity control (I)
task                  : bandstructure # type of calculation (S)
writeformatteddensity : T             # formatted density on/off (L)
optstrategy           : speed         # optimization strategy (S)
xcfunctional          : LDA           # exchange-correlation functional (S)
basisprecision        : MEDIUM        # accuracy of basis set (S)
spin                  : 1.0000000     # net spin (R)
spinpolarised         : T             # spin polarised (L)
fixoccupancy          : T             # treat system as an insulator (L)
numdumpcycles         : 0             # frequency of wavefunction dumps (I)
bsnbands              : 6             # number of bands/k-point in band structure calculation (I)

 *******************************************************************************
  

 Pseudo atomic calculation performed for Si 3s2 3p2

 Converged in 16 iterations to a total energy of -102.0354 eV

Initialising basis set.

Standard grid dimensions:  12  12  12
Fine grid dimensions:      12  12  12

Plane wave load balancing: max    122 min    113 average    117
True cut-off energy of basis :   4.407
 Calculation not parallelised.

 ************************************ Title ************************************
 

 ***************************** General Parameters ******************************
  
 output verbosity                               : verbose (2)
 write checkpoint data to                       : Si2.check
 type of calculation                            : band structure
 stress calculation                             : off
 density difference calculation                 : off
 electron localisation func (ELF) calculation   : off
 Hirshfeld analysis                             : off
 unlimited duration calculation
 timing information                             : on
 memory usage estimate                          : on
 write final potential to formatted file        : off
 write final density to formatted file          : on
 write BibTeX reference list                    : on
 write OTFG pseudopotential files               : on
 checkpoint writing                             : both castep_bin and check files
  
 output         length unit                     : A
 output           mass unit                     : amu
 output           time unit                     : ps
 output         charge unit                     : e
 output           spin unit                     : hbar/2
 output         energy unit                     : eV
 output          force unit                     : eV/A
 output       velocity unit                     : A/ps
 output       pressure unit                     : GPa
 output     inv_length unit                     : 1/A
 output      frequency unit                     : cm-1
 output force constant unit                     : eV/A**2
 output         volume unit                     : A**3
 output   IR intensity unit                     : (D/A)**2/amu
 output         dipole unit                     : D
 output         efield unit                     : eV/A/e
 output        entropy unit                     : J/mol/K
  
 wavefunctions paging                           : none
 random number generator seed                   : randomised (110128910)
 data distribution                              : optimal for this architecture
 optimization strategy                          : maximize speed(+++)

 *********************** Exchange-Correlation Parameters ***********************
  
 using functional                               : Local Density Approximation
 relativistic treatment                         : Koelling-Harmon
 DFT+D: Semi-empirical dispersion correction    : off

 ************************* Pseudopotential Parameters **************************
  
 pseudopotential representation                 : reciprocal space
 <beta|phi> representation                      : reciprocal space
 spin-orbit coupling                            : off

 **************************** Basis Set Parameters *****************************
  
 basis set accuracy                             : MEDIUM
 plane wave basis set cut-off                   :   120.0000   eV
 size of standard grid                          :     1.7500
 size of   fine   gmax                          :     9.8213   1/A
 finite basis set correction                    : none

 **************************** Electronic Parameters ****************************
  
 number of  electrons                           :  8.000    
 net charge of system                           :  0.000    
 net spin   of system                           :  1.000    
 number of  up  spins                           :  4.500    
 number of down spins                           :  3.500    
 treating system as spin-polarized
 number of bands                                :          5

 ********************* Electronic Minimization Parameters **********************
  
 Method: Treating system as non-metallic,
         and number of  SD  steps               :          1
         and number of  CG  steps               :          4
  
 total energy / atom convergence tol.           : 0.1000E-04   eV
 max force / atom convergence tol.              : ignored
 convergence tolerance window                   :          3   cycles
 max. number of SCF cycles                      :         30
 periodic dipole correction                     : NONE

 *********************** Population Analysis Parameters ************************
  
 Population analysis with cutoff                :  3.000       A

 ************************** Band Structure Parameters **************************
  
 max. number of iterations                      :         60
 max. CG steps in BS calc                       :         25
 number of bands / k-point                      :          6
 band convergence tolerance                     : 0.1000E-05   eV
 write orbitals file                            : on

 *******************************************************************************
  

                           -------------------------------
                                      Unit Cell
                           -------------------------------
        Real Lattice(A)                      Reciprocal Lattice(1/A)
   2.6954645   2.6954645   0.0000000        1.1655107   1.1655107  -1.1655107
   2.6954645   0.0000000   2.6954645        1.1655107  -1.1655107   1.1655107
   0.0000000   2.6954645   2.6954645       -1.1655107   1.1655107   1.1655107

                       Lattice parameters(A)       Cell Angles
                    a =    3.811962          alpha =   60.000000
                    b =    3.811962          beta  =   60.000000
                    c =    3.811962          gamma =   60.000000

                       Current cell volume =   39.167950       A**3

                           -------------------------------
                                     Cell Contents
                           -------------------------------
                         Total number of ions in cell =    2
                      Total number of species in cell =    1
                        Max number of any one species =    2

            xxxxxxxxxxxxxxxxxxxxxxxxxxxxxxxxxxxxxxxxxxxxxxxxxxxxxxxxxxxx
            x  Element    Atom        Fractional coordinates of atoms  x
            x            Number           u          v          w      x
            x----------------------------------------------------------x
            x  Si           1         0.000000   0.000000   0.000000   x 
            x  Si           2         0.250000   0.250000   0.250000   x 
            xxxxxxxxxxxxxxxxxxxxxxxxxxxxxxxxxxxxxxxxxxxxxxxxxxxxxxxxxxxx


                         No user defined ionic velocities

                           -------------------------------
                                   Details of Species
                           -------------------------------

                               Mass of species in AMU
                                    Si   28.0855000

                          Electric Quadrupole Moment (Barn)
                                    Si    1.0000000 No Isotope Defined

                          Files used for pseudopotentials:
                                    Si Si_00.usp

                           -------------------------------
                              k-Points For BZ Sampling
                           -------------------------------
                       MP grid size for SCF calculation is  4  4  4
                            with an offset of   0.000  0.000  0.000
                       Number of kpoints used =            10

             +++++++++++++++++++++++++++++++++++++++++++++++++++++++
             +  Number       Fractional coordinates        Weight  +
             +-----------------------------------------------------+
             +     1  -0.375000  -0.125000  -0.375000   0.0937500  +
             +     2  -0.375000   0.375000   0.375000   0.0937500  +
             +     3  -0.125000  -0.375000  -0.125000   0.0937500  +
             +     4  -0.125000   0.375000   0.375000   0.0937500  +
             +     5   0.125000  -0.375000  -0.125000   0.1875000  +
             +     6   0.125000  -0.375000   0.125000   0.0937500  +
             +     7   0.125000  -0.125000  -0.125000   0.0937500  +
             +     8   0.125000   0.125000   0.125000   0.0312500  +
             +     9   0.375000  -0.375000   0.125000   0.1875000  +
             +    10   0.375000   0.375000   0.375000   0.0312500  +
             +++++++++++++++++++++++++++++++++++++++++++++++++++++++

                           -------------------------------
                               Symmetry and Constraints
                           -------------------------------

                      Maximum deviation from symmetry =  0.00000         ANG

                      Number of symmetry operations   =          48
                      Number of ionic constraints     =           3
                      Point group of crystal =    32: Oh, m-3m, 4/m -3 2/m
                      Space group of crystal =   227: Fd-3m, F 4d 2 3 -1d

                    1 rotation    
                 (   1.00000000000   0.00000000000   0.00000000000 )
                 (   0.00000000000   1.00000000000   0.00000000000 )
                 (   0.00000000000   0.00000000000   1.00000000000 )
                    1 displacement
                 (   0.00000000000   0.00000000000  -0.00000000000 )
                      symmetry related atoms: 
             Si:    1    2

                    2 rotation    
                 (   0.00000000000   0.00000000000   1.00000000000 )
                 (   0.00000000000   1.00000000000   0.00000000000 )
                 (  -1.00000000000   0.00000000000   0.00000000000 )
                    2 displacement
                 (   0.25000000000   0.25000000000   0.25000000000 )
                      symmetry related atoms: 
             Si:    2    1

                    3 rotation    
                 (  -1.00000000000   0.00000000000   0.00000000000 )
                 (   0.00000000000   1.00000000000   0.00000000000 )
                 (   0.00000000000   0.00000000000  -1.00000000000 )
                    3 displacement
                 (   0.00000000000   0.00000000000  -0.00000000000 )
                      symmetry related atoms: 
             Si:    1    2

                    4 rotation    
                 (   0.00000000000   0.00000000000  -1.00000000000 )
                 (   0.00000000000   1.00000000000   0.00000000000 )
                 (   1.00000000000   0.00000000000   0.00000000000 )
                    4 displacement
                 (   0.25000000000   0.25000000000   0.25000000000 )
                      symmetry related atoms: 
             Si:    2    1

                    5 rotation    
                 (  -1.00000000000   0.00000000000   0.00000000000 )
                 (   0.00000000000  -1.00000000000   0.00000000000 )
                 (   0.00000000000   0.00000000000   1.00000000000 )
                    5 displacement
                 (   0.00000000000   0.00000000000  -0.00000000000 )
                      symmetry related atoms: 
             Si:    1    2

                    6 rotation    
                 (   0.00000000000   0.00000000000   1.00000000000 )
                 (   0.00000000000  -1.00000000000   0.00000000000 )
                 (   1.00000000000   0.00000000000   0.00000000000 )
                    6 displacement
                 (   0.25000000000   0.25000000000   0.25000000000 )
                      symmetry related atoms: 
             Si:    2    1

                    7 rotation    
                 (   1.00000000000   0.00000000000   0.00000000000 )
                 (   0.00000000000  -1.00000000000   0.00000000000 )
                 (   0.00000000000   0.00000000000  -1.00000000000 )
                    7 displacement
                 (   0.00000000000   0.00000000000  -0.00000000000 )
                      symmetry related atoms: 
             Si:    1    2

                    8 rotation    
                 (   0.00000000000   0.00000000000  -1.00000000000 )
                 (   0.00000000000  -1.00000000000   0.00000000000 )
                 (  -1.00000000000   0.00000000000   0.00000000000 )
                    8 displacement
                 (   0.25000000000   0.25000000000   0.25000000000 )
                      symmetry related atoms: 
             Si:    2    1

                    9 rotation    
                 (   0.00000000000  -1.00000000000   0.00000000000 )
                 (   0.00000000000   0.00000000000   1.00000000000 )
                 (  -1.00000000000   0.00000000000   0.00000000000 )
                    9 displacement
                 (   0.00000000000   0.00000000000  -0.00000000000 )
                      symmetry related atoms: 
             Si:    1    2

                   10 rotation    
                 (  -1.00000000000   0.00000000000   0.00000000000 )
                 (   0.00000000000   0.00000000000   1.00000000000 )
                 (   0.00000000000   1.00000000000   0.00000000000 )
                   10 displacement
                 (   0.25000000000   0.25000000000   0.25000000000 )
                      symmetry related atoms: 
             Si:    2    1

                   11 rotation    
                 (   0.00000000000   1.00000000000   0.00000000000 )
                 (   0.00000000000   0.00000000000   1.00000000000 )
                 (   1.00000000000   0.00000000000   0.00000000000 )
                   11 displacement
                 (   0.00000000000   0.00000000000  -0.00000000000 )
                      symmetry related atoms: 
             Si:    1    2

                   12 rotation    
                 (   1.00000000000   0.00000000000   0.00000000000 )
                 (   0.00000000000   0.00000000000   1.00000000000 )
                 (   0.00000000000  -1.00000000000   0.00000000000 )
                   12 displacement
                 (   0.25000000000   0.25000000000   0.25000000000 )
                      symmetry related atoms: 
             Si:    2    1

                   13 rotation    
                 (   0.00000000000   1.00000000000   0.00000000000 )
                 (   0.00000000000   0.00000000000  -1.00000000000 )
                 (  -1.00000000000   0.00000000000   0.00000000000 )
                   13 displacement
                 (   0.00000000000   0.00000000000  -0.00000000000 )
                      symmetry related atoms: 
             Si:    1    2

                   14 rotation    
                 (  -1.00000000000   0.00000000000   0.00000000000 )
                 (   0.00000000000   0.00000000000  -1.00000000000 )
                 (   0.00000000000  -1.00000000000   0.00000000000 )
                   14 displacement
                 (   0.25000000000   0.25000000000   0.25000000000 )
                      symmetry related atoms: 
             Si:    2    1

                   15 rotation    
                 (   0.00000000000  -1.00000000000   0.00000000000 )
                 (   0.00000000000   0.00000000000  -1.00000000000 )
                 (   1.00000000000   0.00000000000   0.00000000000 )
                   15 displacement
                 (   0.00000000000   0.00000000000  -0.00000000000 )
                      symmetry related atoms: 
             Si:    1    2

                   16 rotation    
                 (   1.00000000000   0.00000000000   0.00000000000 )
                 (   0.00000000000   0.00000000000  -1.00000000000 )
                 (   0.00000000000   1.00000000000   0.00000000000 )
                   16 displacement
                 (   0.25000000000   0.25000000000   0.25000000000 )
                      symmetry related atoms: 
             Si:    2    1

                   17 rotation    
                 (   0.00000000000   0.00000000000  -1.00000000000 )
                 (  -1.00000000000   0.00000000000   0.00000000000 )
                 (   0.00000000000   1.00000000000   0.00000000000 )
                   17 displacement
                 (   0.00000000000   0.00000000000  -0.00000000000 )
                      symmetry related atoms: 
             Si:    1    2

                   18 rotation    
                 (   0.00000000000   1.00000000000   0.00000000000 )
                 (  -1.00000000000   0.00000000000   0.00000000000 )
                 (   0.00000000000   0.00000000000   1.00000000000 )
                   18 displacement
                 (   0.25000000000   0.25000000000   0.25000000000 )
                      symmetry related atoms: 
             Si:    2    1

                   19 rotation    
                 (   0.00000000000   0.00000000000   1.00000000000 )
                 (  -1.00000000000   0.00000000000   0.00000000000 )
                 (   0.00000000000  -1.00000000000   0.00000000000 )
                   19 displacement
                 (   0.00000000000   0.00000000000  -0.00000000000 )
                      symmetry related atoms: 
             Si:    1    2

                   20 rotation    
                 (   0.00000000000  -1.00000000000   0.00000000000 )
                 (  -1.00000000000   0.00000000000   0.00000000000 )
                 (   0.00000000000   0.00000000000  -1.00000000000 )
                   20 displacement
                 (   0.25000000000   0.25000000000   0.25000000000 )
                      symmetry related atoms: 
             Si:    2    1

                   21 rotation    
                 (   0.00000000000   0.00000000000   1.00000000000 )
                 (   1.00000000000   0.00000000000   0.00000000000 )
                 (   0.00000000000   1.00000000000   0.00000000000 )
                   21 displacement
                 (   0.00000000000   0.00000000000  -0.00000000000 )
                      symmetry related atoms: 
             Si:    1    2

                   22 rotation    
                 (   0.00000000000   1.00000000000   0.00000000000 )
                 (   1.00000000000   0.00000000000   0.00000000000 )
                 (   0.00000000000   0.00000000000  -1.00000000000 )
                   22 displacement
                 (   0.25000000000   0.25000000000   0.25000000000 )
                      symmetry related atoms: 
             Si:    2    1

                   23 rotation    
                 (   0.00000000000   0.00000000000  -1.00000000000 )
                 (   1.00000000000   0.00000000000   0.00000000000 )
                 (   0.00000000000  -1.00000000000   0.00000000000 )
                   23 displacement
                 (   0.00000000000   0.00000000000  -0.00000000000 )
                      symmetry related atoms: 
             Si:    1    2

                   24 rotation    
                 (   0.00000000000  -1.00000000000   0.00000000000 )
                 (   1.00000000000   0.00000000000   0.00000000000 )
                 (   0.00000000000   0.00000000000   1.00000000000 )
                   24 displacement
                 (   0.25000000000   0.25000000000   0.25000000000 )
                      symmetry related atoms: 
             Si:    2    1

                   25 rotation    
                 (  -1.00000000000   0.00000000000   0.00000000000 )
                 (   0.00000000000  -1.00000000000   0.00000000000 )
                 (   0.00000000000   0.00000000000  -1.00000000000 )
                   25 displacement
                 (   0.25000000000   0.25000000000   0.25000000000 )
                      symmetry related atoms: 
             Si:    2    1

                   26 rotation    
                 (   0.00000000000   0.00000000000  -1.00000000000 )
                 (   0.00000000000  -1.00000000000   0.00000000000 )
                 (   1.00000000000   0.00000000000   0.00000000000 )
                   26 displacement
                 (   0.00000000000   0.00000000000  -0.00000000000 )
                      symmetry related atoms: 
             Si:    1    2

                   27 rotation    
                 (   1.00000000000   0.00000000000   0.00000000000 )
                 (   0.00000000000  -1.00000000000   0.00000000000 )
                 (   0.00000000000   0.00000000000   1.00000000000 )
                   27 displacement
                 (   0.25000000000   0.25000000000   0.25000000000 )
                      symmetry related atoms: 
             Si:    2    1

                   28 rotation    
                 (   0.00000000000   0.00000000000   1.00000000000 )
                 (   0.00000000000  -1.00000000000   0.00000000000 )
                 (  -1.00000000000   0.00000000000   0.00000000000 )
                   28 displacement
                 (   0.00000000000   0.00000000000  -0.00000000000 )
                      symmetry related atoms: 
             Si:    1    2

                   29 rotation    
                 (   1.00000000000   0.00000000000   0.00000000000 )
                 (   0.00000000000   1.00000000000   0.00000000000 )
                 (   0.00000000000   0.00000000000  -1.00000000000 )
                   29 displacement
                 (   0.25000000000   0.25000000000   0.25000000000 )
                      symmetry related atoms: 
             Si:    2    1

                   30 rotation    
                 (   0.00000000000   0.00000000000  -1.00000000000 )
                 (   0.00000000000   1.00000000000   0.00000000000 )
                 (  -1.00000000000   0.00000000000   0.00000000000 )
                   30 displacement
                 (   0.00000000000   0.00000000000  -0.00000000000 )
                      symmetry related atoms: 
             Si:    1    2

                   31 rotation    
                 (  -1.00000000000   0.00000000000   0.00000000000 )
                 (   0.00000000000   1.00000000000   0.00000000000 )
                 (   0.00000000000   0.00000000000   1.00000000000 )
                   31 displacement
                 (   0.25000000000   0.25000000000   0.25000000000 )
                      symmetry related atoms: 
             Si:    2    1

                   32 rotation    
                 (   0.00000000000   0.00000000000   1.00000000000 )
                 (   0.00000000000   1.00000000000   0.00000000000 )
                 (   1.00000000000   0.00000000000   0.00000000000 )
                   32 displacement
                 (   0.00000000000   0.00000000000  -0.00000000000 )
                      symmetry related atoms: 
             Si:    1    2

                   33 rotation    
                 (   0.00000000000   1.00000000000   0.00000000000 )
                 (   0.00000000000   0.00000000000  -1.00000000000 )
                 (   1.00000000000   0.00000000000   0.00000000000 )
                   33 displacement
                 (   0.25000000000   0.25000000000   0.25000000000 )
                      symmetry related atoms: 
             Si:    2    1

                   34 rotation    
                 (   1.00000000000   0.00000000000   0.00000000000 )
                 (   0.00000000000   0.00000000000  -1.00000000000 )
                 (   0.00000000000  -1.00000000000   0.00000000000 )
                   34 displacement
                 (   0.00000000000   0.00000000000  -0.00000000000 )
                      symmetry related atoms: 
             Si:    1    2

                   35 rotation    
                 (   0.00000000000  -1.00000000000   0.00000000000 )
                 (   0.00000000000   0.00000000000  -1.00000000000 )
                 (  -1.00000000000   0.00000000000   0.00000000000 )
                   35 displacement
                 (   0.25000000000   0.25000000000   0.25000000000 )
                      symmetry related atoms: 
             Si:    2    1

                   36 rotation    
                 (  -1.00000000000   0.00000000000   0.00000000000 )
                 (   0.00000000000   0.00000000000  -1.00000000000 )
                 (   0.00000000000   1.00000000000   0.00000000000 )
                   36 displacement
                 (   0.00000000000   0.00000000000  -0.00000000000 )
                      symmetry related atoms: 
             Si:    1    2

                   37 rotation    
                 (   0.00000000000  -1.00000000000   0.00000000000 )
                 (   0.00000000000   0.00000000000   1.00000000000 )
                 (   1.00000000000   0.00000000000   0.00000000000 )
                   37 displacement
                 (   0.25000000000   0.25000000000   0.25000000000 )
                      symmetry related atoms: 
             Si:    2    1

                   38 rotation    
                 (   1.00000000000   0.00000000000   0.00000000000 )
                 (   0.00000000000   0.00000000000   1.00000000000 )
                 (   0.00000000000   1.00000000000   0.00000000000 )
                   38 displacement
                 (   0.00000000000   0.00000000000  -0.00000000000 )
                      symmetry related atoms: 
             Si:    1    2

                   39 rotation    
                 (   0.00000000000   1.00000000000   0.00000000000 )
                 (   0.00000000000   0.00000000000   1.00000000000 )
                 (  -1.00000000000   0.00000000000   0.00000000000 )
                   39 displacement
                 (   0.25000000000   0.25000000000   0.25000000000 )
                      symmetry related atoms: 
             Si:    2    1

                   40 rotation    
                 (  -1.00000000000   0.00000000000   0.00000000000 )
                 (   0.00000000000   0.00000000000   1.00000000000 )
                 (   0.00000000000  -1.00000000000   0.00000000000 )
                   40 displacement
                 (   0.00000000000   0.00000000000  -0.00000000000 )
                      symmetry related atoms: 
             Si:    1    2

                   41 rotation    
                 (   0.00000000000   0.00000000000   1.00000000000 )
                 (   1.00000000000   0.00000000000   0.00000000000 )
                 (   0.00000000000  -1.00000000000   0.00000000000 )
                   41 displacement
                 (   0.25000000000   0.25000000000   0.25000000000 )
                      symmetry related atoms: 
             Si:    2    1

                   42 rotation    
                 (   0.00000000000  -1.00000000000   0.00000000000 )
                 (   1.00000000000   0.00000000000   0.00000000000 )
                 (   0.00000000000   0.00000000000  -1.00000000000 )
                   42 displacement
                 (   0.00000000000   0.00000000000  -0.00000000000 )
                      symmetry related atoms: 
             Si:    1    2

                   43 rotation    
                 (   0.00000000000   0.00000000000  -1.00000000000 )
                 (   1.00000000000   0.00000000000   0.00000000000 )
                 (   0.00000000000   1.00000000000   0.00000000000 )
                   43 displacement
                 (   0.25000000000   0.25000000000   0.25000000000 )
                      symmetry related atoms: 
             Si:    2    1

                   44 rotation    
                 (   0.00000000000   1.00000000000   0.00000000000 )
                 (   1.00000000000   0.00000000000   0.00000000000 )
                 (   0.00000000000   0.00000000000   1.00000000000 )
                   44 displacement
                 (   0.00000000000   0.00000000000  -0.00000000000 )
                      symmetry related atoms: 
             Si:    1    2

                   45 rotation    
                 (   0.00000000000   0.00000000000  -1.00000000000 )
                 (  -1.00000000000   0.00000000000   0.00000000000 )
                 (   0.00000000000  -1.00000000000   0.00000000000 )
                   45 displacement
                 (   0.25000000000   0.25000000000   0.25000000000 )
                      symmetry related atoms: 
             Si:    2    1

                   46 rotation    
                 (   0.00000000000  -1.00000000000   0.00000000000 )
                 (  -1.00000000000   0.00000000000   0.00000000000 )
                 (   0.00000000000   0.00000000000   1.00000000000 )
                   46 displacement
                 (   0.00000000000   0.00000000000  -0.00000000000 )
                      symmetry related atoms: 
             Si:    1    2

                   47 rotation    
                 (   0.00000000000   0.00000000000   1.00000000000 )
                 (  -1.00000000000   0.00000000000   0.00000000000 )
                 (   0.00000000000   1.00000000000   0.00000000000 )
                   47 displacement
                 (   0.25000000000   0.25000000000   0.25000000000 )
                      symmetry related atoms: 
             Si:    2    1

                   48 rotation    
                 (   0.00000000000   1.00000000000   0.00000000000 )
                 (  -1.00000000000   0.00000000000   0.00000000000 )
                 (   0.00000000000   0.00000000000  -1.00000000000 )
                   48 displacement
                 (   0.00000000000   0.00000000000  -0.00000000000 )
                      symmetry related atoms: 
             Si:    1    2


                         Centre of mass is constrained

            xxxxxxxxxxxxxxxxxxxxxxxxxxxxxxxxxxxxxxxxxxxxxxxxxxxxxxxxx....
            x  Species  atom   co-ordinate  constraints.....         
            x--------------------------------------------------------....
            x Si           1       x        51196.7345      0.0000      0.0000
            x Si           1       y            0.0000  51196.7345      0.0000
            x Si           1       z            0.0000      0.0000  51196.7345
            x Si           2       x        51196.7345      0.0000      0.0000
            x Si           2       y            0.0000  51196.7345      0.0000
            x Si           2       z            0.0000      0.0000  51196.7345
            xxxxxxxxxxxxxxxxxxxxxxxxxxxxxxxxxxxxxxxxxxxxxxxxxxxxxxxxx....

                         Number of cell constraints= 5
                         Cell constraints are:  1 1 1 0 0 0

                         External pressure/stress (GPa)
                          0.00000   0.00000   0.00000
                                    0.00000   0.00000
                                              0.00000
  
+---------------- MEMORY AND SCRATCH DISK ESTIMATES PER PROCESS --------------+
|                                                     Memory          Disk    |
| Baseline code, static data and system overhead        0.0 MB         0.0 MB |
| BLAS internal memory storage                          0.0 MB         0.0 MB |
| Model and support data                                3.0 MB         0.0 MB |
| Electronic energy minimisation requirements           1.3 MB         0.0 MB |
| Force calculation requirements                        0.3 MB         0.0 MB |
|                                               ----------------------------- |
| Approx. total storage required per process            4.2 MB         0.0 MB |
|                                                                             |
| Requirements will fluctuate during execution and may exceed these estimates |
+-----------------------------------------------------------------------------+
 
Init
Total energy                     =       159.17754399204031301 eV
------------------------------------------------------------------------ <-- SCF
SCF loop      Energy                           Energy gain       Timer   <-- SCF
                                               per atom          (sec)   <-- SCF
------------------------------------------------------------------------ <-- SCF
Initial   1.59177544E+002                                          0.40  <-- SCF
+------------------- WAVEFUNCTION LINE MINIMISATION --------------------+<- line
| Initial energy =  1.591775E+002 eV; initial dE/dstep = -2.952E+002 eV |<- line
|                                                                       |<- line
|            1st step    2nd step    3rd step    4th step    5th step   |<- line
+--------+--------------------------------------------------------------+<- line
| step   |  1.500E+00   1.652E+00* unnecessary unnecessary unnecessary  |<- line
| gain   |  2.418E+02   2.430E+02* unnecessary unnecessary unnecessary  |<- line
+--------+--------------------------------------------------------------+<- line
 * indicates the final, accepted state (should have the lowest energy)          
 
+------------------- WAVEFUNCTION LINE MINIMISATION --------------------+<- line
| Initial energy = -9.035751E+001 eV; initial dE/dstep = -1.159E+002 eV |<- line
|                                                                       |<- line
|            1st step    2nd step    3rd step    4th step    5th step   |<- line
+--------+--------------------------------------------------------------+<- line
| step   |  1.500E+00   1.175E+00* unnecessary unnecessary unnecessary  |<- line
| gain   |  6.289E+01   6.642E+01* unnecessary unnecessary unnecessary  |<- line
+--------+--------------------------------------------------------------+<- line
 * indicates the final, accepted state (should have the lowest energy)          
 
+------------------- WAVEFUNCTION LINE MINIMISATION --------------------+<- line
| Initial energy = -1.590827E+002 eV; initial dE/dstep = -5.626E+001 eV |<- line
|                                                                       |<- line
|            1st step    2nd step    3rd step    4th step    5th step   |<- line
+--------+--------------------------------------------------------------+<- line
| step   |  1.500E+00   9.692E-01* unnecessary unnecessary unnecessary  |<- line
| gain   |  1.909E+01   2.621E+01* unnecessary unnecessary unnecessary  |<- line
+--------+--------------------------------------------------------------+<- line
 * indicates the final, accepted state (should have the lowest energy)          
 
+------------------- WAVEFUNCTION LINE MINIMISATION --------------------+<- line
| Initial energy = -1.859311E+002 eV; initial dE/dstep = -2.917E+001 eV |<- line
|                                                                       |<- line
|            1st step    2nd step    3rd step    4th step    5th step   |<- line
+--------+--------------------------------------------------------------+<- line
| step   |  1.500E+00   8.805E-01* unnecessary unnecessary unnecessary  |<- line
| gain   |  6.484E+00   1.243E+01* unnecessary unnecessary unnecessary  |<- line
+--------+--------------------------------------------------------------+<- line
 * indicates the final, accepted state (should have the lowest energy)          
 
+------------------- WAVEFUNCTION LINE MINIMISATION --------------------+<- line
| Initial energy = -1.987191E+002 eV; initial dE/dstep = -1.630E+001 eV |<- line
|                                                                       |<- line
|            1st step    2nd step    3rd step    4th step    5th step   |<- line
+--------+--------------------------------------------------------------+<- line
| step   |  1.500E+00   8.028E-01* unnecessary unnecessary unnecessary  |<- line
| gain   |  1.609E+00   6.389E+00* unnecessary unnecessary unnecessary  |<- line
+--------+--------------------------------------------------------------+<- line
 * indicates the final, accepted state (should have the lowest energy)          
 
+--------+-------+------------------------------+-----------------------+       
|  Band  | Steps |          Eigenvalue          |     Change      stop  |<- line
|        |       |    Initial         Final     | (energy drop)   cond  |<- line
+--------+-------+------------------------------+-----------------------+<- line
      1  -2.05318676E+002                    1.82248110E+002       0.86  <-- SCF
+------------------- WAVEFUNCTION LINE MINIMISATION --------------------+<- line
| Initial energy = -2.053187E+002 eV; initial dE/dstep = -3.126E+000 eV |<- line
|                                                                       |<- line
|            1st step    2nd step    3rd step    4th step    5th step   |<- line
+--------+--------------------------------------------------------------+<- line
| step   |  1.500E+00   4.239E+00* unnecessary unnecessary unnecessary  |<- line
| gain   |  3.860E+00   6.292E+00* unnecessary unnecessary unnecessary  |<- line
+--------+--------------------------------------------------------------+<- line
 * indicates the final, accepted state (should have the lowest energy)          
 
+------------------- WAVEFUNCTION LINE MINIMISATION --------------------+<- line
| Initial energy = -2.117564E+002 eV; initial dE/dstep = -7.420E-001 eV |<- line
|                                                                       |<- line
|            1st step    2nd step    3rd step    4th step    5th step   |<- line
+--------+--------------------------------------------------------------+<- line
| step   |  1.500E+00   4.030E+00* unnecessary unnecessary unnecessary  |<- line
| gain   |  9.059E-01   1.462E+00* unnecessary unnecessary unnecessary  |<- line
+--------+--------------------------------------------------------------+<- line
 * indicates the final, accepted state (should have the lowest energy)          
 
+------------------- WAVEFUNCTION LINE MINIMISATION --------------------+<- line
| Initial energy = -2.132436E+002 eV; initial dE/dstep = -2.544E-001 eV |<- line
|                                                                       |<- line
|            1st step    2nd step    3rd step    4th step    5th step   |<- line
+--------+--------------------------------------------------------------+<- line
| step   |  1.500E+00   3.748E+00* unnecessary unnecessary unnecessary  |<- line
| gain   |  3.053E-01   4.724E-01* unnecessary unnecessary unnecessary  |<- line
+--------+--------------------------------------------------------------+<- line
 * indicates the final, accepted state (should have the lowest energy)          
 
+------------------- WAVEFUNCTION LINE MINIMISATION --------------------+<- line
| Initial energy = -2.137201E+002 eV; initial dE/dstep = -8.741E-002 eV |<- line
|                                                                       |<- line
|            1st step    2nd step    3rd step    4th step    5th step   |<- line
+--------+--------------------------------------------------------------+<- line
| step   |  1.500E+00   4.162E+00* unnecessary unnecessary unnecessary  |<- line
| gain   |  1.075E-01   1.793E-01* unnecessary unnecessary unnecessary  |<- line
+--------+--------------------------------------------------------------+<- line
 * indicates the final, accepted state (should have the lowest energy)          
 
+------------------- WAVEFUNCTION LINE MINIMISATION --------------------+<- line
| Initial energy = -2.139011E+002 eV; initial dE/dstep = -4.319E-002 eV |<- line
|                                                                       |<- line
|            1st step    2nd step    3rd step    4th step    5th step   |<- line
+--------+--------------------------------------------------------------+<- line
| step   |  1.500E+00   4.425E+00* unnecessary unnecessary unnecessary  |<- line
| gain   |  5.381E-02   9.411E-02* unnecessary unnecessary unnecessary  |<- line
+--------+--------------------------------------------------------------+<- line
 * indicates the final, accepted state (should have the lowest energy)          
 
+--------+-------+------------------------------+-----------------------+       
|  Band  | Steps |          Eigenvalue          |     Change      stop  |<- line
|        |       |    Initial         Final     | (energy drop)   cond  |<- line
+--------+-------+------------------------------+-----------------------+<- line
      2  -2.13995415E+002                    4.33836985E+000       1.29  <-- SCF
+------------------- WAVEFUNCTION LINE MINIMISATION --------------------+<- line
| Initial energy = -2.139954E+002 eV; initial dE/dstep = -2.273E-002 eV |<- line
|                                                                       |<- line
|            1st step    2nd step    3rd step    4th step    5th step   |<- line
+--------+--------------------------------------------------------------+<- line
| step   |  1.500E+00   3.751E+00* unnecessary unnecessary unnecessary  |<- line
| gain   |  2.728E-02   4.268E-02* unnecessary unnecessary unnecessary  |<- line
+--------+--------------------------------------------------------------+<- line
 * indicates the final, accepted state (should have the lowest energy)          
 
+------------------- WAVEFUNCTION LINE MINIMISATION --------------------+<- line
| Initial energy = -2.140381E+002 eV; initial dE/dstep = -1.236E-002 eV |<- line
|                                                                       |<- line
|            1st step    2nd step    3rd step    4th step    5th step   |<- line
+--------+--------------------------------------------------------------+<- line
| step   |  1.500E+00   4.351E+00* unnecessary unnecessary unnecessary  |<- line
| gain   |  1.534E-02   2.682E-02* unnecessary unnecessary unnecessary  |<- line
+--------+--------------------------------------------------------------+<- line
 * indicates the final, accepted state (should have the lowest energy)          
 
+------------------- WAVEFUNCTION LINE MINIMISATION --------------------+<- line
| Initial energy = -2.140650E+002 eV; initial dE/dstep = -7.702E-003 eV |<- line
|                                                                       |<- line
|            1st step    2nd step    3rd step    4th step    5th step   |<- line
+--------+--------------------------------------------------------------+<- line
| step   |  1.500E+00   5.830E+00* unnecessary unnecessary unnecessary  |<- line
| gain   |  1.007E-02   2.219E-02* unnecessary unnecessary unnecessary  |<- line
+--------+--------------------------------------------------------------+<- line
 * indicates the final, accepted state (should have the lowest energy)          
 
+------------------- WAVEFUNCTION LINE MINIMISATION --------------------+<- line
| Initial energy = -2.140872E+002 eV; initial dE/dstep = -5.898E-003 eV |<- line
|                                                                       |<- line
|            1st step    2nd step    3rd step    4th step    5th step   |<- line
+--------+--------------------------------------------------------------+<- line
| step   |  1.500E+00   4.847E+00* unnecessary unnecessary unnecessary  |<- line
| gain   |  7.478E-03   1.420E-02* unnecessary unnecessary unnecessary  |<- line
+--------+--------------------------------------------------------------+<- line
 * indicates the final, accepted state (should have the lowest energy)          
 
+------------------- WAVEFUNCTION LINE MINIMISATION --------------------+<- line
| Initial energy = -2.141014E+002 eV; initial dE/dstep = -3.130E-003 eV |<- line
|                                                                       |<- line
|            1st step    2nd step    3rd step    4th step    5th step   |<- line
+--------+--------------------------------------------------------------+<- line
| step   |  1.500E+00   5.062E+00* unnecessary unnecessary unnecessary  |<- line
| gain   |  3.999E-03   7.905E-03* unnecessary unnecessary unnecessary  |<- line
+--------+--------------------------------------------------------------+<- line
 * indicates the final, accepted state (should have the lowest energy)          
 
+--------+-------+------------------------------+-----------------------+       
|  Band  | Steps |          Eigenvalue          |     Change      stop  |<- line
|        |       |    Initial         Final     | (energy drop)   cond  |<- line
+--------+-------+------------------------------+-----------------------+<- line
      3  -2.14109288E+002                    5.69360162E-002       1.70  <-- SCF
+------------------- WAVEFUNCTION LINE MINIMISATION --------------------+<- line
| Initial energy = -2.141093E+002 eV; initial dE/dstep = -1.505E-003 eV |<- line
|                                                                       |<- line
|            1st step    2nd step    3rd step    4th step    5th step   |<- line
+--------+--------------------------------------------------------------+<- line
| step   |  1.500E+00   3.595E+00* unnecessary unnecessary unnecessary  |<- line
| gain   |  1.786E-03   2.699E-03* unnecessary unnecessary unnecessary  |<- line
+--------+--------------------------------------------------------------+<- line
 * indicates the final, accepted state (should have the lowest energy)          
 
+------------------- WAVEFUNCTION LINE MINIMISATION --------------------+<- line
| Initial energy = -2.141120E+002 eV; initial dE/dstep = -7.906E-004 eV |<- line
|                                                                       |<- line
|            1st step    2nd step    3rd step    4th step    5th step   |<- line
+--------+--------------------------------------------------------------+<- line
| step   |  1.500E+00   5.129E+00* unnecessary unnecessary unnecessary  |<- line
| gain   |  1.013E-03   2.031E-03* unnecessary unnecessary unnecessary  |<- line
+--------+--------------------------------------------------------------+<- line
 * indicates the final, accepted state (should have the lowest energy)          
 
+------------------- WAVEFUNCTION LINE MINIMISATION --------------------+<- line
| Initial energy = -2.141140E+002 eV; initial dE/dstep = -4.738E-004 eV |<- line
|                                                                       |<- line
|            1st step    2nd step    3rd step    4th step    5th step   |<- line
+--------+--------------------------------------------------------------+<- line
| step   |  1.500E+00   5.058E+00* unnecessary unnecessary unnecessary  |<- line
| gain   |  6.053E-04   1.202E-03* unnecessary unnecessary unnecessary  |<- line
+--------+--------------------------------------------------------------+<- line
 * indicates the final, accepted state (should have the lowest energy)          
 
+------------------- WAVEFUNCTION LINE MINIMISATION --------------------+<- line
| Initial energy = -2.141152E+002 eV; initial dE/dstep = -2.773E-004 eV |<- line
|                                                                       |<- line
|            1st step    2nd step    3rd step    4th step    5th step   |<- line
+--------+--------------------------------------------------------------+<- line
| step   |  1.500E+00   5.851E+00* unnecessary unnecessary unnecessary  |<- line
| gain   |  3.626E-04   8.011E-04* unnecessary unnecessary unnecessary  |<- line
+--------+--------------------------------------------------------------+<- line
 * indicates the final, accepted state (should have the lowest energy)          
 
+------------------- WAVEFUNCTION LINE MINIMISATION --------------------+<- line
| Initial energy = -2.141160E+002 eV; initial dE/dstep = -1.965E-004 eV |<- line
|                                                                       |<- line
|            1st step    2nd step    3rd step    4th step    5th step   |<- line
+--------+--------------------------------------------------------------+<- line
| step   |  1.500E+00   4.808E+00* unnecessary unnecessary unnecessary  |<- line
| gain   |  2.488E-04   4.689E-04* unnecessary unnecessary unnecessary  |<- line
+--------+--------------------------------------------------------------+<- line
 * indicates the final, accepted state (should have the lowest energy)          
 
+--------+-------+------------------------------+-----------------------+       
|  Band  | Steps |          Eigenvalue          |     Change      stop  |<- line
|        |       |    Initial         Final     | (energy drop)   cond  |<- line
+--------+-------+------------------------------+-----------------------+<- line
      4  -2.14116492E+002                    3.60206522E-003       2.14  <-- SCF
+------------------- WAVEFUNCTION LINE MINIMISATION --------------------+<- line
| Initial energy = -2.141165E+002 eV; initial dE/dstep = -1.585E-004 eV |<- line
|                                                                       |<- line
|            1st step    2nd step    3rd step    4th step    5th step   |<- line
+--------+--------------------------------------------------------------+<- line
| step   |  1.500E+00   2.807E+00* unnecessary unnecessary unnecessary  |<- line
| gain   |  1.742E-04   2.231E-04* unnecessary unnecessary unnecessary  |<- line
+--------+--------------------------------------------------------------+<- line
 * indicates the final, accepted state (should have the lowest energy)          
 
+------------------- WAVEFUNCTION LINE MINIMISATION --------------------+<- line
| Initial energy = -2.141167E+002 eV; initial dE/dstep = -6.847E-005 eV |<- line
|                                                                       |<- line
|            1st step    2nd step    3rd step    4th step    5th step   |<- line
+--------+--------------------------------------------------------------+<- line
| step   |  1.500E+00   5.254E+00* unnecessary unnecessary unnecessary  |<- line
| gain   |  8.805E-05   1.818E-04* unnecessary unnecessary unnecessary  |<- line
+--------+--------------------------------------------------------------+<- line
 * indicates the final, accepted state (should have the lowest energy)          
 
+------------------- WAVEFUNCTION LINE MINIMISATION --------------------+<- line
| Initial energy = -2.141169E+002 eV; initial dE/dstep = -4.583E-005 eV |<- line
|                                                                       |<- line
|            1st step    2nd step    3rd step    4th step    5th step   |<- line
+--------+--------------------------------------------------------------+<- line
| step   |  1.500E+00   6.814E+00* unnecessary unnecessary unnecessary  |<- line
| gain   |  6.118E-05   1.495E-04* unnecessary unnecessary unnecessary  |<- line
+--------+--------------------------------------------------------------+<- line
 * indicates the final, accepted state (should have the lowest energy)          
 
+------------------- WAVEFUNCTION LINE MINIMISATION --------------------+<- line
| Initial energy = -2.141170E+002 eV; initial dE/dstep = -4.879E-005 eV |<- line
|                                                                       |<- line
|            1st step    2nd step    3rd step    4th step    5th step   |<- line
+--------+--------------------------------------------------------------+<- line
| step   |  1.500E+00   6.020E+00* unnecessary unnecessary unnecessary  |<- line
| gain   |  6.407E-05   1.395E-04* unnecessary unnecessary unnecessary  |<- line
+--------+--------------------------------------------------------------+<- line
 * indicates the final, accepted state (should have the lowest energy)          
 
+------------------- WAVEFUNCTION LINE MINIMISATION --------------------+<- line
| Initial energy = -2.141172E+002 eV; initial dE/dstep = -3.387E-005 eV |<- line
|                                                                       |<- line
|            1st step    2nd step    3rd step    4th step    5th step   |<- line
+--------+--------------------------------------------------------------+<- line
| step   |  1.500E+00   4.769E+00* unnecessary unnecessary unnecessary  |<- line
| gain   |  4.281E-05   8.023E-05* unnecessary unnecessary unnecessary  |<- line
+--------+--------------------------------------------------------------+<- line
 * indicates the final, accepted state (should have the lowest energy)          
 
+--------+-------+------------------------------+-----------------------+       
|  Band  | Steps |          Eigenvalue          |     Change      stop  |<- line
|        |       |    Initial         Final     | (energy drop)   cond  |<- line
+--------+-------+------------------------------+-----------------------+<- line
      5  -2.14117266E+002                    3.87154227E-004       2.55  <-- SCF
+------------------- WAVEFUNCTION LINE MINIMISATION --------------------+<- line
| Initial energy = -2.141173E+002 eV; initial dE/dstep = -2.735E-005 eV |<- line
|                                                                       |<- line
|            1st step    2nd step    3rd step    4th step    5th step   |<- line
+--------+--------------------------------------------------------------+<- line
| step   |  1.500E+00   3.949E+00* unnecessary unnecessary unnecessary  |<- line
| gain   |  3.323E-05   5.280E-05* unnecessary unnecessary unnecessary  |<- line
+--------+--------------------------------------------------------------+<- line
 * indicates the final, accepted state (should have the lowest energy)          
 
+------------------- WAVEFUNCTION LINE MINIMISATION --------------------+<- line
| Initial energy = -2.141173E+002 eV; initial dE/dstep = -1.654E-005 eV |<- line
|                                                                       |<- line
|            1st step    2nd step    3rd step    4th step    5th step   |<- line
+--------+--------------------------------------------------------------+<- line
| step   |  1.500E+00   5.386E+00* unnecessary unnecessary unnecessary  |<- line
| gain   |  2.136E-05   4.484E-05* unnecessary unnecessary unnecessary  |<- line
+--------+--------------------------------------------------------------+<- line
 * indicates the final, accepted state (should have the lowest energy)          
 
+------------------- WAVEFUNCTION LINE MINIMISATION --------------------+<- line
| Initial energy = -2.141174E+002 eV; initial dE/dstep = -1.066E-005 eV |<- line
|                                                                       |<- line
|            1st step    2nd step    3rd step    4th step    5th step   |<- line
+--------+--------------------------------------------------------------+<- line
| step   |  1.500E+00   4.549E+00* unnecessary unnecessary unnecessary  |<- line
| gain   |  1.336E-05   2.441E-05* unnecessary unnecessary unnecessary  |<- line
+--------+--------------------------------------------------------------+<- line
 * indicates the final, accepted state (should have the lowest energy)          
 
+------------------- WAVEFUNCTION LINE MINIMISATION --------------------+<- line
| Initial energy = -2.141174E+002 eV; initial dE/dstep = -5.794E-006 eV |<- line
|                                                                       |<- line
|            1st step    2nd step    3rd step    4th step    5th step   |<- line
+--------+--------------------------------------------------------------+<- line
| step   |  1.500E+00   7.576E+00* unnecessary unnecessary unnecessary  |<- line
| gain   |  7.831E-06   1.916E-05* unnecessary unnecessary unnecessary  |<- line
+--------+--------------------------------------------------------------+<- line
 * indicates the final, accepted state (should have the lowest energy)          
 
+------------------- WAVEFUNCTION LINE MINIMISATION --------------------+<- line
| Initial energy = -2.141174E+002 eV; initial dE/dstep = -5.924E-006 eV |<- line
|                                                                       |<- line
|            1st step    2nd step    3rd step    4th step    5th step   |<- line
+--------+--------------------------------------------------------------+<- line
| step   |  1.500E+00   4.860E+00* unnecessary unnecessary unnecessary  |<- line
| gain   |  7.514E-06   1.396E-05* unnecessary unnecessary unnecessary  |<- line
+--------+--------------------------------------------------------------+<- line
 * indicates the final, accepted state (should have the lowest energy)          
 
+--------+-------+------------------------------+-----------------------+       
|  Band  | Steps |          Eigenvalue          |     Change      stop  |<- line
|        |       |    Initial         Final     | (energy drop)   cond  |<- line
+--------+-------+------------------------------+-----------------------+<- line
      6  -2.14117421E+002                    7.75714224E-005       2.96  <-- SCF
+------------------- WAVEFUNCTION LINE MINIMISATION --------------------+<- line
| Initial energy = -2.141174E+002 eV; initial dE/dstep = -7.340E-006 eV |<- line
|                                                                       |<- line
|            1st step    2nd step    3rd step    4th step    5th step   |<- line
+--------+--------------------------------------------------------------+<- line
| step   |  1.500E+00   2.920E+00* unnecessary unnecessary unnecessary  |<- line
| gain   |  8.182E-06   1.093E-05* unnecessary unnecessary unnecessary  |<- line
+--------+--------------------------------------------------------------+<- line
 * indicates the final, accepted state (should have the lowest energy)          
 
+------------------- WAVEFUNCTION LINE MINIMISATION --------------------+<- line
| Initial energy = -2.141174E+002 eV; initial dE/dstep = -3.119E-006 eV |<- line
|                                                                       |<- line
|            1st step    2nd step    3rd step    4th step    5th step   |<- line
+--------+--------------------------------------------------------------+<- line
| step   |  1.500E+00   4.226E+00* unnecessary unnecessary unnecessary  |<- line
| gain   |  3.848E-06   6.973E-06* unnecessary unnecessary unnecessary  |<- line
+--------+--------------------------------------------------------------+<- line
 * indicates the final, accepted state (should have the lowest energy)          
 
+------------------- WAVEFUNCTION LINE MINIMISATION --------------------+<- line
| Initial energy = -2.141174E+002 eV; initial dE/dstep = -1.619E-006 eV |<- line
|                                                                       |<- line
|            1st step    2nd step    3rd step    4th step    5th step   |<- line
+--------+--------------------------------------------------------------+<- line
| step   |  1.500E+00   1.003E+01* unnecessary unnecessary unnecessary  |<- line
| gain   |  2.248E-06   6.204E-06* unnecessary unnecessary unnecessary  |<- line
+--------+--------------------------------------------------------------+<- line
 * indicates the final, accepted state (should have the lowest energy)          
 
+------------------- WAVEFUNCTION LINE MINIMISATION --------------------+<- line
| Initial energy = -2.141174E+002 eV; initial dE/dstep = -2.599E-006 eV |<- line
|                                                                       |<- line
|            1st step    2nd step    3rd step    4th step    5th step   |<- line
+--------+--------------------------------------------------------------+<- line
| step   |  1.500E+00   4.074E+00* unnecessary unnecessary unnecessary  |<- line
| gain   |  3.180E-06   4.716E-06* unnecessary unnecessary unnecessary  |<- line
+--------+--------------------------------------------------------------+<- line
 * indicates the final, accepted state (should have the lowest energy)          
 
+------------------- WAVEFUNCTION LINE MINIMISATION --------------------+<- line
| Initial energy = -2.141174E+002 eV; initial dE/dstep = -1.843E-006 eV |<- line
|                                                                       |<- line
|            1st step    2nd step    3rd step    4th step    5th step   |<- line
+--------+--------------------------------------------------------------+<- line
| step   |  1.500E+00   2.731E+00* unnecessary unnecessary unnecessary  |<- line
| gain   |  2.005E-06   2.526E-06* unnecessary unnecessary unnecessary  |<- line
+--------+--------------------------------------------------------------+<- line
 * indicates the final, accepted state (should have the lowest energy)          
 
+--------+-------+------------------------------+-----------------------+       
|  Band  | Steps |          Eigenvalue          |     Change      stop  |<- line
|        |       |    Initial         Final     | (energy drop)   cond  |<- line
+--------+-------+------------------------------+-----------------------+<- line
      7  -2.14117452E+002                    1.56740394E-005       3.40  <-- SCF
+------------------- WAVEFUNCTION LINE MINIMISATION --------------------+<- line
| Initial energy = -2.141175E+002 eV; initial dE/dstep = -1.278E-006 eV |<- line
|                                                                       |<- line
|            1st step    2nd step    3rd step    4th step    5th step   |<- line
+--------+--------------------------------------------------------------+<- line
| step   |  1.500E+00   6.043E+00* unnecessary unnecessary unnecessary  |<- line
| gain   |  1.680E-06   3.932E-06* unnecessary unnecessary unnecessary  |<- line
+--------+--------------------------------------------------------------+<- line
 * indicates the final, accepted state (should have the lowest energy)          
 
+------------------- WAVEFUNCTION LINE MINIMISATION --------------------+<- line
| Initial energy = -2.141175E+002 eV; initial dE/dstep = -1.756E-006 eV |<- line
|                                                                       |<- line
|            1st step    2nd step    3rd step    4th step    5th step   |<- line
+--------+--------------------------------------------------------------+<- line
| step   |  1.500E+00   4.595E+00* unnecessary unnecessary unnecessary  |<- line
| gain   |  2.205E-06   3.923E-06* unnecessary unnecessary unnecessary  |<- line
+--------+--------------------------------------------------------------+<- line
 * indicates the final, accepted state (should have the lowest energy)          
 
+------------------- WAVEFUNCTION LINE MINIMISATION --------------------+<- line
| Initial energy = -2.141175E+002 eV; initial dE/dstep = -4.311E-007 eV |<- line
|                                                                       |<- line
|            1st step    2nd step    3rd step    4th step    5th step   |<- line
+--------+--------------------------------------------------------------+<- line
| step   |  1.500E+00   3.198E+00* unnecessary unnecessary unnecessary  |<- line
| gain   |  4.949E-07   7.202E-07* unnecessary unnecessary unnecessary  |<- line
+--------+--------------------------------------------------------------+<- line
 * indicates the final, accepted state (should have the lowest energy)          
 
+------------------- WAVEFUNCTION LINE MINIMISATION --------------------+<- line
| Initial energy = -2.141175E+002 eV; initial dE/dstep = -2.093E-007 eV |<- line
|                                                                       |<- line
|            1st step    2nd step    3rd step    4th step    5th step   |<- line
+--------+--------------------------------------------------------------+<- line
| step   |  1.500E+00   6.301E+00* unnecessary unnecessary unnecessary  |<- line
| gain   |  2.766E-07   7.403E-07* unnecessary unnecessary unnecessary  |<- line
+--------+--------------------------------------------------------------+<- line
 * indicates the final, accepted state (should have the lowest energy)          
 
+------------------- WAVEFUNCTION LINE MINIMISATION --------------------+<- line
| Initial energy = -2.141175E+002 eV; initial dE/dstep = -2.241E-007 eV |<- line
|                                                                       |<- line
|            1st step    2nd step    3rd step    4th step    5th step   |<- line
+--------+--------------------------------------------------------------+<- line
| step   |  1.500E+00   8.099E+00* unnecessary unnecessary unnecessary  |<- line
| gain   |  3.051E-07   7.866E-07* unnecessary unnecessary unnecessary  |<- line
+--------+--------------------------------------------------------------+<- line
 * indicates the final, accepted state (should have the lowest energy)          
 
+--------+-------+------------------------------+-----------------------+       
|  Band  | Steps |          Eigenvalue          |     Change      stop  |<- line
|        |       |    Initial         Final     | (energy drop)   cond  |<- line
+--------+-------+------------------------------+-----------------------+<- line
      8  -2.14117463E+002                    5.04948192E-006       3.82  <-- SCF
+------------------- WAVEFUNCTION LINE MINIMISATION --------------------+<- line
| Initial energy = -2.141175E+002 eV; initial dE/dstep = -3.428E-007 eV |<- line
|                                                                       |<- line
|            1st step    2nd step    3rd step    4th step    5th step   |<- line
+--------+--------------------------------------------------------------+<- line
| step   |  1.500E+00   2.101E+00* unnecessary unnecessary unnecessary  |<- line
| gain   |  3.307E-07   3.799E-07* unnecessary unnecessary unnecessary  |<- line
+--------+--------------------------------------------------------------+<- line
 * indicates the final, accepted state (should have the lowest energy)          
 
+------------------- WAVEFUNCTION LINE MINIMISATION --------------------+<- line
| Initial energy = -2.141175E+002 eV; initial dE/dstep = -8.004E-008 eV |<- line
|                                                                       |<- line
|            1st step    2nd step    3rd step    4th step    5th step   |<- line
+--------+--------------------------------------------------------------+<- line
| step   |  1.500E+00   5.154E+00* unnecessary unnecessary unnecessary  |<- line
| gain   |  1.026E-07   2.315E-07* unnecessary unnecessary unnecessary  |<- line
+--------+--------------------------------------------------------------+<- line
 * indicates the final, accepted state (should have the lowest energy)          
 
** Parabolic stationary point is a maximum *
** - looks like we need another trial step *
+------------------- WAVEFUNCTION LINE MINIMISATION --------------------+<- line
| Initial energy = -2.141175E+002 eV; initial dE/dstep = -8.674E-008 eV |<- line
|                                                                       |<- line
|            1st step    2nd step    3rd step    4th step    5th step   |<- line
+--------+--------------------------------------------------------------+<- line
| step   |  1.500E+00* unnecessary unnecessary unnecessary unnecessary  |<- line
| gain   |  1.314E-07* unnecessary unnecessary unnecessary unnecessary  |<- line
+--------+--------------------------------------------------------------+<- line
 * indicates the final, accepted state (should have the lowest energy)          
 
** Parabolic stationary point is a maximum *
** - looks like we need another trial step *
+------------------- WAVEFUNCTION LINE MINIMISATION --------------------+<- line
| Initial energy = -2.141175E+002 eV; initial dE/dstep = -9.908E-008 eV |<- line
|                                                                       |<- line
|            1st step    2nd step    3rd step    4th step    5th step   |<- line
+--------+--------------------------------------------------------------+<- line
| step   |  1.500E+00* unnecessary unnecessary unnecessary unnecessary  |<- line
| gain   |  1.512E-07* unnecessary unnecessary unnecessary unnecessary  |<- line
+--------+--------------------------------------------------------------+<- line
 * indicates the final, accepted state (should have the lowest energy)          
 
** Parabolic stationary point is a maximum *
** - looks like we need another trial step *
+------------------- WAVEFUNCTION LINE MINIMISATION --------------------+<- line
| Initial energy = -2.141175E+002 eV; initial dE/dstep = -7.097E-008 eV |<- line
|                                                                       |<- line
|            1st step    2nd step    3rd step    4th step    5th step   |<- line
+--------+--------------------------------------------------------------+<- line
| step   |  1.500E+00* unnecessary unnecessary unnecessary unnecessary  |<- line
| gain   |  1.147E-07* unnecessary unnecessary unnecessary unnecessary  |<- line
+--------+--------------------------------------------------------------+<- line
 * indicates the final, accepted state (should have the lowest energy)          
 
+--------+-------+------------------------------+-----------------------+       
|  Band  | Steps |          Eigenvalue          |     Change      stop  |<- line
|        |       |    Initial         Final     | (energy drop)   cond  |<- line
+--------+-------+------------------------------+-----------------------+<- line
      9  -2.14117464E+002                    5.04187528E-007       4.21  <-- SCF
------------------------------------------------------------------------ <-- SCF
Total energy has converged after 9 SCF iterations.
 
Integrated Spin Density     =     1.00000     hbar/2                        
Integrated |Spin Density|   =     1.00000     hbar/2                        
 
Final energy =  -214.1174635551     eV
(energy not corrected for finite basis set)
 
Have a nice day.

Writing analysis data to Si2.castep_bin

Writing model to Si2.check
Initialising basis set.

Standard grid dimensions:  12  12  12
Fine grid dimensions:      12  12  12

Plane wave load balancing: max    125 min    108 average    116
True cut-off energy of basis :   4.399
 Reassigning basis set.
True cut-off energy of basis :   4.399
  
+---------------- MEMORY AND SCRATCH DISK ESTIMATES PER PROCESS --------------+
|                                                     Memory          Disk    |
| Baseline code, static data and system overhead        0.0 MB         0.0 MB |
| BLAS internal memory storage                          0.0 MB         0.0 MB |
| Model and support data                                4.3 MB         0.0 MB |
| Band structure calculation requirements               3.6 MB         0.0 MB |
| Force calculation requirements                        0.3 MB         0.0 MB |
|                                               ----------------------------- |
| Approx. total storage required per process            7.9 MB         0.0 MB |
|                                                                             |
| Requirements will fluctuate during execution and may exceed these estimates |
+-----------------------------------------------------------------------------+
  =====================================================================
  +  Fermi energy for spin  up  electrons is:     6.55869 eV          +
  +  Fermi energy for spin down electrons is:     6.55869 eV          +
  +                                                                   +
  +       B A N D   S T R U C T U R E   C A L C U L A T I O N         +
  +      (General k-point calculation - complex wavefunctions)        +
  +                                                                   +
  + ================================================================= +
  +                                                                   +
  +     Band Structure Calculation: Progress report on root process   +
  +                                                                   +
  +   There are   44 BS k-points. Root process contains   44 of them. +
  +                                                                   +
|     1  |   25  |  4.344083E+01  -1.657575E+00 |   4.5098E+01     X--  |<- line
|     2  |   25  |  4.754648E+01  -1.657843E+00 |   4.9204E+01     X--  |<- line
|     3  |   19  |  4.909723E+01   2.074151E+00 |   4.7023E+01     -X-  |<- line
|     4  |   20  |  5.608667E+01   2.070786E+00 |   5.4016E+01     -X-  |<- line
|     5  |   25  |  5.970663E+01   1.041311E+01 |   4.9294E+01     X--  |<- line
|     6  |   25  |  6.471979E+01   1.054355E+01 |   5.4176E+01     X--  |<- line
  +         BS Iteration:   1 of (up to)   60, Time:     0.03s.       +
|     1  |    3  | -1.660785E+00  -1.660800E+00 |   1.5678E-05     -X-  |<- line
|     2  |    3  | -1.654814E+00  -1.654828E+00 |   1.4246E-05     -X-  |<- line
|     3  |    1  |  2.070542E+00   2.070542E+00 |   1.7864E-07     -X-  |<- line
|     4  |    1  |  2.074574E+00   2.074573E+00 |   3.6457E-07     -X-  |<- line
|     5  |    3  |  1.041311E+01   1.041310E+01 |   1.1452E-05     -X-  |<- line
|     6  |   10  |  1.054355E+01   1.041027E+01 |   1.3329E-01     -X-  |<- line
  +         BS Iteration:   2 of (up to)   60, Time:     0.00s.       +
|     1  |    1  | -1.660800E+00  -1.660800E+00 |   1.6124E-08     -X-  |<- line
|     2  |    1  | -1.654828E+00  -1.654828E+00 |   1.5873E-08     -X-  |<- line
|     3  |    1  |  2.070542E+00   2.070542E+00 |   1.7364E-08     -X-  |<- line
|     4  |    1  |  2.074573E+00   2.074573E+00 |   3.3669E-08     -X-  |<- line
|     5  |    1  |  1.041008E+01   1.041008E+01 |   1.3707E-07     -X-  |<- line
|     6  |    1  |  1.041328E+01   1.041328E+01 |   2.1590E-07     -X-  |<- line
  +         BS Iteration:   3 of (up to)   60, Time:     0.00s.       +
  +         BS Iteration:   4 of (up to)   60, Time:     0.00s.       +
  +   Spin= 1 of  2, K-point=   1 of   44 completed, Time:     0.04s. +
|     1  |   25  |  3.821401E+01  -2.032776E+00 |   4.0247E+01     X--  |<- line
|     2  |   25  |  4.692892E+01  -1.310114E+00 |   4.8239E+01     X--  |<- line
|     3  |   25  |  5.096251E+01   1.853601E+00 |   4.9109E+01     X--  |<- line
|     4  |   25  |  5.049165E+01   2.388689E+00 |   4.8103E+01     X--  |<- line
|     5  |   25  |  5.621637E+01   1.009442E+01 |   4.6122E+01     X--  |<- line
|     6  |   25  |  5.957725E+01   1.038985E+01 |   4.9187E+01     X--  |<- line
  +         BS Iteration:   1 of (up to)   60, Time:     0.03s.       +
|     1  |    4  | -2.033015E+00  -2.033123E+00 |   1.0819E-04     -X-  |<- line
|     2  |    3  | -1.310505E+00  -1.310576E+00 |   7.1871E-05     -X-  |<- line
|     3  |    2  |  1.853740E+00   1.853733E+00 |   7.0712E-06     -X-  |<- line
|     4  |    2  |  2.389154E+00   2.389152E+00 |   1.7312E-06     -X-  |<- line
|     5  |   10  |  1.007288E+01   1.003332E+01 |   3.9564E-02     -X-  |<- line
|     6  |   10  |  1.041141E+01   1.040352E+01 |   7.8886E-03     -X-  |<- line
  +         BS Iteration:   2 of (up to)   60, Time:     0.01s.       +
|     1  |    1  | -2.033123E+00  -2.033123E+00 |   9.9691E-09     -X-  |<- line
|     2  |    1  | -1.310576E+00  -1.310577E+00 |   7.4352E-08     -X-  |<- line
|     3  |    1  |  1.853733E+00   1.853733E+00 |   6.1154E-08     -X-  |<- line
|     4  |    1  |  2.389152E+00   2.389152E+00 |   2.0304E-08     -X-  |<- line
|     5  |    2  |  1.003302E+01   1.003302E+01 |   4.0456E-06     -X-  |<- line
|     6  |    2  |  1.040382E+01   1.040382E+01 |   4.5122E-06     -X-  |<- line
  +         BS Iteration:   3 of (up to)   60, Time:     0.00s.       +
|     1  |    1  | -2.033123E+00  -2.033123E+00 |   1.3786E-09     -X-  |<- line
|     2  |    1  | -1.310577E+00  -1.310577E+00 |   1.2432E-08     -X-  |<- line
|     3  |    1  |  1.853733E+00   1.853733E+00 |   1.0271E-08     -X-  |<- line
|     4  |    1  |  2.389152E+00   2.389152E+00 |   2.9893E-09     -X-  |<- line
|     5  |    1  |  1.003302E+01   1.003302E+01 |   1.2230E-07     -X-  |<- line
|     6  |    1  |  1.040382E+01   1.040382E+01 |   1.6495E-08     -X-  |<- line
  +         BS Iteration:   4 of (up to)   60, Time:     0.00s.       +
  +         BS Iteration:   5 of (up to)   60, Time:     0.00s.       +
  +   Spin= 1 of  2, K-point=   2 of   44 completed, Time:     0.04s. +
|     1  |   25  |  3.998653E+01  -2.384212E+00 |   4.2371E+01     X--  |<- line
|     2  |   25  |  4.387552E+01  -9.927856E-01 |   4.4868E+01     X--  |<- line
|     3  |   25  |  4.852104E+01   1.781691E+00 |   4.6739E+01     X--  |<- line
|     4  |   25  |  5.303891E+01   2.974514E+00 |   5.0064E+01     X--  |<- line
[...]
  +           3        6.053802                                       +
  +           4        6.056757                                       +
  +           5        8.820672                                       +
  +           6        9.697460                                       +
  + ----------------------------------------------------------------- +
  +  Spin=2 kpt=   24 (  0.125000  0.000000  0.125000) kpt-group=  1  +
  + ----------------------------------------------------------------- +
  +                                                                   +
  +           1       -5.277338                                       +
  +           2        5.164029                                       +
  +           3        5.655636                                       +
  +           4        5.658319                                       +
  +           5        8.534242                                       +
  +           6       10.268614                                       +
  + ----------------------------------------------------------------- +
  +  Spin=2 kpt=   25 (  0.166667  0.000000  0.166667) kpt-group=  1  +
  + ----------------------------------------------------------------- +
  +                                                                   +
  +           1       -5.063241                                       +
  +           2        4.461098                                       +
  +           3        5.262737                                       +
  +           4        5.265253                                       +
  +           5        8.219552                                       +
  +           6       10.913528                                       +
  + ----------------------------------------------------------------- +
  +  Spin=2 kpt=   26 (  0.208333  0.000000  0.208333) kpt-group=  1  +
  + ----------------------------------------------------------------- +
  +                                                                   +
  +           1       -4.793856                                       +
  +           2        3.737874                                       +
  +           3        4.889297                                       +
  +           4        4.891720                                       +
  +           5        7.907451                                       +
  +           6       10.357735                                       +
  + ----------------------------------------------------------------- +
  +  Spin=2 kpt=   27 (  0.250000  0.000000  0.250000) kpt-group=  1  +
  + ----------------------------------------------------------------- +
  +                                                                   +
  +           1       -4.461325                                       +
  +           2        2.986963                                       +
  +           3        4.552983                                       +
  +           4        4.555319                                       +
  +           5        7.628153                                       +
  +           6        9.703728                                       +
  + ----------------------------------------------------------------- +
  +  Spin=2 kpt=   28 (  0.291667  0.000000  0.291667) kpt-group=  1  +
  + ----------------------------------------------------------------- +
  +                                                                   +
  +           1       -4.071416                                       +
  +           2        2.231623                                       +
  +           3        4.260545                                       +
  +           4        4.262818                                       +
  +           5        7.394421                                       +
  +           6        9.079848                                       +
  + ----------------------------------------------------------------- +
  +  Spin=2 kpt=   29 (  0.333333  0.000000  0.333333) kpt-group=  1  +
  + ----------------------------------------------------------------- +
  +                                                                   +
  +           1       -3.620850                                       +
  +           2        1.492363                                       +
  +           3        4.019165                                       +
  +           4        4.021389                                       +
  +           5        7.241714                                       +
  +           6        8.543026                                       +
  + ----------------------------------------------------------------- +
  +  Spin=2 kpt=   30 (  0.375000  0.000000  0.375000) kpt-group=  1  +
  + ----------------------------------------------------------------- +
  +                                                                   +
  +           1       -3.132075                                       +
  +           2        0.745620                                       +
  +           3        3.827020                                       +
  +           4        3.829212                                       +
  +           5        7.115814                                       +
  +           6        8.069354                                       +
  + ----------------------------------------------------------------- +
  +  Spin=2 kpt=   31 (  0.416667  0.000000  0.416667) kpt-group=  1  +
  + ----------------------------------------------------------------- +
  +                                                                   +
  +           1       -2.584535                                       +
  +           2        0.018214                                       +
  +           3        3.688569                                       +
  +           4        3.690738                                       +
  +           5        7.079138                                       +
  +           6        7.696025                                       +
  + ----------------------------------------------------------------- +
  +  Spin=2 kpt=   32 (  0.458333  0.000000  0.458333) kpt-group=  1  +
  + ----------------------------------------------------------------- +
  +                                                                   +
  +           1       -1.991598                                       +
  +           2       -0.684711                                       +
  +           3        3.605070                                       +
  +           4        3.607226                                       +
  +           5        7.109100                                       +
  +           6        7.413533                                       +
  + ----------------------------------------------------------------- +
  +  Spin=2 kpt=   33 (  0.500000  0.000000  0.500000) kpt-group=  1  +
  + ----------------------------------------------------------------- +
  +                                                                   +
  +           1       -1.358370                                       +
  +           2       -1.354859                                       +
  +           3        3.577168                                       +
  +           4        3.579320                                       +
  +           5        7.217661                                       +
  +           6        7.220625                                       +
  + ----------------------------------------------------------------- +
  +  Spin=2 kpt=   34 (  0.500000  0.041667  0.541667) kpt-group=  1  +
  + ----------------------------------------------------------------- +
  +                                                                   +
  +           1       -1.347498                                       +
  +           2       -1.343915                                       +
  +           3        3.486513                                       +
  +           4        3.488737                                       +
  +           5        7.386035                                       +
  +           6        7.388975                                       +
  + ----------------------------------------------------------------- +
  +  Spin=2 kpt=   35 (  0.500000  0.083333  0.583333) kpt-group=  1  +
  + ----------------------------------------------------------------- +
  +                                                                   +
  +           1       -1.317054                                       +
  +           2       -1.313259                                       +
  +           3        3.263342                                       +
  +           4        3.265742                                       +
  +           5        7.843736                                       +
  +           6        7.846631                                       +
  + ----------------------------------------------------------------- +
  +  Spin=2 kpt=   36 (  0.500000  0.125000  0.625000) kpt-group=  1  +
  + ----------------------------------------------------------------- +
  +                                                                   +
  +           1       -1.265655                                       +
  +           2       -1.261550                                       +
  +           3        2.998451                                       +
  +           4        3.001071                                       +
  +           5        8.512191                                       +
  +           6        8.515016                                       +
  + ----------------------------------------------------------------- +
  +  Spin=2 kpt=   37 (  0.500000  0.166667  0.666667) kpt-group=  1  +
  + ----------------------------------------------------------------- +
  +                                                                   +
  +           1       -1.216201                                       +
  +           2       -1.211669                                       +
  +           3        2.763657                                       +
  +           4        2.766519                                       +
  +           5        9.318138                                       +
  +           6        9.320947                                       +
  + ----------------------------------------------------------------- +
  +  Spin=2 kpt=   38 (  0.500000  0.208333  0.708333) kpt-group=  1  +
  + ----------------------------------------------------------------- +
  +                                                                   +
  +           1       -1.181505                                       +
  +           2       -1.176534                                       +
  +           3        2.604497                                       +
  +           4        2.607559                                       +
  +           5       10.191493                                       +
  +           6       10.194273                                       +
  + ----------------------------------------------------------------- +
  +  Spin=2 kpt=   39 (  0.500000  0.250000  0.750000) kpt-group=  1  +
  + ----------------------------------------------------------------- +
  +                                                                   +
  +           1       -1.163176                                       +
  +           2       -1.157864                                       +
  +           3        2.549191                                       +
  +           4        2.552350                                       +
  +           5       10.882354                                       +
  +           6       10.885207                                       +
  + ----------------------------------------------------------------- +
  +  Spin=2 kpt=   40 (  0.475000  0.275000  0.750000) kpt-group=  1  +
  + ----------------------------------------------------------------- +
  +                                                                   +
  +           1       -1.375377                                       +
  +           2       -0.967241                                       +
  +           3        2.389354                                       +
  +           4        2.790304                                       +
  +           5       10.164547                                       +
  +           6       10.936994                                       +
  + ----------------------------------------------------------------- +
  +  Spin=2 kpt=   41 (  0.450000  0.300000  0.750000) kpt-group=  1  +
  + ----------------------------------------------------------------- +
  +                                                                   +
  +           1       -1.538392                                       +
  +           2       -0.847168                                       +
  +           3        2.260760                                       +
  +           4        3.137198                                       +
  +           5        9.289427                                       +
  +           6       10.876067                                       +
  + ----------------------------------------------------------------- +
  +  Spin=2 kpt=   42 (  0.425000  0.325000  0.750000) kpt-group=  1  +
  + ----------------------------------------------------------------- +
  +                                                                   +
  +           1       -1.654708                                       +
  +           2       -0.781666                                       +
  +           3        2.167391                                       +
  +           4        3.531870                                       +
  +           5        8.519870                                       +
  +           6       10.809834                                       +
  + ----------------------------------------------------------------- +
  +  Spin=2 kpt=   43 (  0.400000  0.350000  0.750000) kpt-group=  1  +
  + ----------------------------------------------------------------- +
  +                                                                   +
  +           1       -1.739018                                       +
  +           2       -0.750843                                       +
  +           3        2.110667                                       +
  +           4        3.870650                                       +
  +           5        7.952034                                       +
  +           6       10.753496                                       +
  + ----------------------------------------------------------------- +
  +  Spin=2 kpt=   44 (  0.375000  0.375000  0.750000) kpt-group=  1  +
  + ----------------------------------------------------------------- +
  +                                                                   +
  +           1       -1.765650                                       +
  +           2       -0.743493                                       +
  +           3        2.090537                                       +
  +           4        4.011593                                       +
  +           5        7.738691                                       +
  +           6       10.735153                                       +
  =====================================================================

Writing model to Si2.orbitals
Initialising basis set.

Standard grid dimensions:  12  12  12
Fine grid dimensions:      12  12  12

Plane wave load balancing: max    122 min    113 average    117
True cut-off energy of basis :   4.407
 Reassigning basis set.
True cut-off energy of basis :   4.407

 ******************** Ewald forces ********************
 *                                                    *
 *            Cartesian components (eV/A)             *
 * -------------------------------------------------- *
 *                   x            y            z      *
 *                                                    *
 * Si        1      0.00000      0.00000      0.00000 *
 * Si        2     -0.00000     -0.00000     -0.00000 *
 *                                                    *
 ******************************************************

 *************** Local potential forces ***************
 *                                                    *
 *            Cartesian components (eV/A)             *
 * -------------------------------------------------- *
 *                   x            y            z      *
 *                                                    *
 * Si        1      0.19068     -0.02326     -0.03684 *
 * Si        2     -0.19068      0.02331      0.03682 *
 *                                                    *
 ******************************************************

 ************* Non-local potential forces *************
 *                                                    *
 *            Cartesian components (eV/A)             *
 * -------------------------------------------------- *
 *                   x            y            z      *
 *                                                    *
 * Si        1      0.98748      0.17229     -0.18090 *
 * Si        2     -0.98743     -0.17210      0.18091 *
 *                                                    *
 ******************************************************

 *********** External Efield and/or dipole ************
 *                                                    *
 *            Cartesian components (eV/A)             *
 * -------------------------------------------------- *
 *                   x            y            z      *
 *                                                    *
 * Si        1      0.00000      0.00000      0.00000 *
 * Si        2      0.00000      0.00000      0.00000 *
 *                                                    *
 ******************************************************

 ***************** Symmetrised Forces *****************
 *                                                    *
 *            Cartesian components (eV/A)             *
 * -------------------------------------------------- *
 *                   x            y            z      *
 *                                                    *
 * Si        1      0.00000      0.00000      0.00000 *
 * Si        2      0.00000      0.00000     -0.00000 *
 *                                                    *
 ******************************************************

 Pseudo atomic calculation performed for Si 3s2 3p2

 Converged in 16 iterations to a total energy of -102.0354 eV

Charge spilling parameter for spin component 1 = 3.46%
Charge spilling parameter for spin component 2 = 0.81%
The total projected populations are: spin up    4.500   0.000, spin down    3.500  -0.000, total    8.000   0.000

     Atomic Populations (Mulliken)
     -----------------------------
Species   Ion     s      p      d      f     Total  Charge (e)  Spin (hbar/2)
===========================================================================
  Si       1     1.41   2.59   0.00   0.00   4.00     0.00        0.50
  Si       2     1.41   2.59   0.00   0.00   4.00     0.00        0.50
===========================================================================

            Bond              Population        Spin       Length (A)
======================================================================
         Si 1 -- Si 2              1.79        -0.42          2.33434
======================================================================


Writing analysis data to Si2.castep_bin

Writing model to Si2.check
 
 A BibTeX formatted list of references used in this run has been written to 
 Si2.bib
 
Initialisation time =      0.23 s
Calculation time    =      7.21 s
Finalisation time   =      0.01 s
Total time          =      7.45 s
