 +-------------------------------------------------+
 |                                                 |
 |      CCC   AA    SSS  TTTTT  EEEEE  PPPP        |
 |     C     A  A  S       T    E      P   P       |
 |     C     AAAA   SS     T    EEE    PPPP        |
 |     C     A  A     S    T    E      P           |
 |      CCC  A  A  SSS     T    EEEEE  P           |
 |                                                 |
 +-------------------------------------------------+
 |                                                 |
 | Welcome to Academic Release CASTEP version 16.1 |          
 | Ab Initio Total Energy Program                  |
 |                                                 |
 | Authors:                                        |
 | M. Segall, M. Probert, C. Pickard, P. Hasnip,   |
 | S. Clark, K. Refson, J. R. Yates, M. Payne      |
 |                                                 |
 | Contributors:                                   |
 | P. Lindan, P. Haynes, J. White, V. Milman,      |
 | N. Govind, M. Gibson, P. Tulip, V. Cocula,      |
 | B. Montanari, D. Quigley, M. Glover,            |
 | L. Bernasconi, A. Perlov, M. Plummer,           |
 | E. McNellis, J. Meyer, J. Gale, D. Jochym       |
 | J. Aarons, B. Walker, R. Gillen, D. Jones       |
 | T. Green, I. J. Bush, C. J. Armstrong,          |
 | E. J. Higgins, E. L. Brown, M. S. McFly         |
 |                                                 |
 | Copyright (c) 2000 - 2015                       |
 |                                                 |
 |     Distributed under the terms of an           |
 |     Agreement between the United Kingdom        |
 |     Car-Parrinello (UKCP) Consortium,           |
 |     Daresbury Laboratory and Accelrys, Inc.     |
 |                                                 |
 | Please cite                                     |
 |                                                 |
 |     "First principles methods using CASTEP"     |
 |                                                 |
 |         Zeitschrift fuer Kristallographie       |
 |           220(5-6) pp. 567-570 (2005)           |
 |                                                 |
 | S. J. Clark, M. D. Segall, C. J. Pickard,       |
 | P. J. Hasnip, M. J. Probert, K. Refson,         |
 | M. C. Payne                                     |
 |                                                 |
 |       in all publications arising from          |
 |              your use of CASTEP                 |
 |                                                 |
 +-------------------------------------------------+


 Compiled for darwin_x86_64_gfortran4.9 on Tue, 15 Dec 2015 16:29:18 +0000
 from code version b833c1ffcd7d+  Fri, 13 Jun 2014 17:24:31 +0100
 Compiler: GNU Fortran 4.9.1; Optimisation: intermediate
 MATHLIBS: default (LAPACK version 3.2.1)
 FFT Lib : default
 Fundamental constants values: CODATA 2010

 Run started: Thu, 14 Jan 2016 16:44:16 +0000

 Pseudo atomic calculation performed for Si 3s2 3p2

 Converged in 16 iterations to a total energy of -102.0354 eV

 Calculation not parallelised.

 ************************************ Title ************************************
 

 ***************************** General Parameters ******************************
  
 output verbosity                               : normal  (1)
 write checkpoint data to                       : Si2.check
 type of calculation                            : band structure
 stress calculation                             : off
 density difference calculation                 : on
 electron localisation func (ELF) calculation   : off
 Hirshfeld analysis                             : off
 unlimited duration calculation
 timing information                             : on
 memory usage estimate                          : on
 write final potential to formatted file        : off
 write final density to formatted file          : on
 write BibTeX reference list                    : on
 write OTFG pseudopotential files               : on
 checkpoint writing                             : both castep_bin and check files
  
 output         length unit                     : A
 output           mass unit                     : amu
 output           time unit                     : ps
 output         charge unit                     : e
 output           spin unit                     : hbar/2
 output         energy unit                     : eV
 output          force unit                     : eV/A
 output       velocity unit                     : A/ps
 output       pressure unit                     : GPa
 output     inv_length unit                     : 1/A
 output      frequency unit                     : cm-1
 output force constant unit                     : eV/A**2
 output         volume unit                     : A**3
 output   IR intensity unit                     : (D/A)**2/amu
 output         dipole unit                     : D
 output         efield unit                     : eV/A/e
 output        entropy unit                     : J/mol/K
  
 wavefunctions paging                           : none
 random number generator seed                   : randomised (164416111)
 data distribution                              : optimal for this architecture
 optimization strategy                          : maximize speed(+++)

 *********************** Exchange-Correlation Parameters ***********************
  
 using functional                               : Local Density Approximation
 relativistic treatment                         : Koelling-Harmon
 DFT+D: Semi-empirical dispersion correction    : off

 ************************* Pseudopotential Parameters **************************
  
 pseudopotential representation                 : reciprocal space
 <beta|phi> representation                      : reciprocal space
 spin-orbit coupling                            : off

 **************************** Basis Set Parameters *****************************
  
 basis set accuracy                             : MEDIUM
 plane wave basis set cut-off                   :   120.0000   eV
 size of standard grid                          :     1.7500
 size of   fine   gmax                          :     9.8213   1/A
 finite basis set correction                    : none

 **************************** Electronic Parameters ****************************
  
 number of  electrons                           :  8.000    
 net charge of system                           :  0.000    
 treating system as non-spin-polarized
 number of bands                                :          4

 ********************* Electronic Minimization Parameters **********************
  
 Method: Treating system as non-metallic,
         and number of  SD  steps               :          1
         and number of  CG  steps               :          4
  
 total energy / atom convergence tol.           : 0.1000E-04   eV
 max force / atom convergence tol.              : ignored
 convergence tolerance window                   :          3   cycles
 max. number of SCF cycles                      :         30
 periodic dipole correction                     : NONE

 *********************** Population Analysis Parameters ************************
  
 Population analysis with cutoff                :  3.000       A

 ************************** Band Structure Parameters **************************
  
 max. number of iterations                      :         60
 max. CG steps in BS calc                       :         25
 number of bands / k-point                      :         14
 band convergence tolerance                     : 0.1000E-05   eV
 write orbitals file                            : on

 *******************************************************************************
  

                           -------------------------------
                                      Unit Cell
                           -------------------------------
        Real Lattice(A)                      Reciprocal Lattice(1/A)
   2.6954645   2.6954645   0.0000000        1.1655107   1.1655107  -1.1655107
   2.6954645   0.0000000   2.6954645        1.1655107  -1.1655107   1.1655107
   0.0000000   2.6954645   2.6954645       -1.1655107   1.1655107   1.1655107

                       Lattice parameters(A)       Cell Angles
                    a =    3.811962          alpha =   60.000000
                    b =    3.811962          beta  =   60.000000
                    c =    3.811962          gamma =   60.000000

                       Current cell volume =   39.167950       A**3

                           -------------------------------
                                     Cell Contents
                           -------------------------------
                         Total number of ions in cell =    2
                      Total number of species in cell =    1
                        Max number of any one species =    2

            xxxxxxxxxxxxxxxxxxxxxxxxxxxxxxxxxxxxxxxxxxxxxxxxxxxxxxxxxxxx
            x  Element    Atom        Fractional coordinates of atoms  x
            x            Number           u          v          w      x
            x----------------------------------------------------------x
            x  Si           1         0.000000   0.000000   0.000000   x 
            x  Si           2         0.250000   0.250000   0.250000   x 
            xxxxxxxxxxxxxxxxxxxxxxxxxxxxxxxxxxxxxxxxxxxxxxxxxxxxxxxxxxxx


                         No user defined ionic velocities

                           -------------------------------
                                   Details of Species
                           -------------------------------

                               Mass of species in AMU
                                    Si   28.0855000

                          Electric Quadrupole Moment (Barn)
                                    Si    1.0000000 No Isotope Defined

                          Files used for pseudopotentials:
                                    Si Si_00.usp

                           -------------------------------
                              k-Points For BZ Sampling
                           -------------------------------
                       MP grid size for SCF calculation is  4  4  4
                            with an offset of   0.000  0.000  0.000
                       Number of kpoints used =            10

                           -------------------------------
                               Symmetry and Constraints
                           -------------------------------

                      Maximum deviation from symmetry =  0.00000         ANG

                      Number of symmetry operations   =          48
                      Number of ionic constraints     =           3
                      Point group of crystal =    32: Oh, m-3m, 4/m -3 2/m
                      Space group of crystal =   227: Fd-3m, F 4d 2 3 -1d

             Set iprint > 1 for details on symmetry rotations/translations

                         Centre of mass is constrained
             Set iprint > 1 for details of linear ionic constraints

                         Number of cell constraints= 5
                         Cell constraints are:  1 1 1 0 0 0

                         External pressure/stress (GPa)
                          0.00000   0.00000   0.00000
                                    0.00000   0.00000
                                              0.00000
  
+---------------- MEMORY AND SCRATCH DISK ESTIMATES PER PROCESS --------------+
|                                                     Memory          Disk    |
| Baseline code, static data and system overhead        0.0 MB         0.0 MB |
| BLAS internal memory storage                          0.0 MB         0.0 MB |
| Model and support data                                2.8 MB         0.0 MB |
| Electronic energy minimisation requirements           0.6 MB         0.0 MB |
| Force calculation requirements                        0.2 MB         0.0 MB |
|                                               ----------------------------- |
| Approx. total storage required per process            3.4 MB         0.0 MB |
|                                                                             |
| Requirements will fluctuate during execution and may exceed these estimates |
+-----------------------------------------------------------------------------+
------------------------------------------------------------------------ <-- SCF
SCF loop      Energy                           Energy gain       Timer   <-- SCF
                                               per atom          (sec)   <-- SCF
------------------------------------------------------------------------ <-- SCF
Initial   1.74405534E+002                                          0.23  <-- SCF
      1  -2.02030201E+002                    1.88217867E+002       0.35  <-- SCF
      2  -2.15744647E+002                    6.85722327E+000       0.46  <-- SCF
      3  -2.16090653E+002                    1.73003123E-001       0.58  <-- SCF
      4  -2.16090975E+002                    1.60824769E-004       0.70  <-- SCF
      5  -2.16090976E+002                    5.52248593E-007       0.83  <-- SCF
      6  -2.16090976E+002                    1.17402188E-008       0.95  <-- SCF
------------------------------------------------------------------------ <-- SCF
 
Final energy =  -216.0909760751     eV
(energy not corrected for finite basis set)
 

Writing analysis data to Si2.castep_bin

Writing model to Si2.check
  
+---------------- MEMORY AND SCRATCH DISK ESTIMATES PER PROCESS --------------+
|                                                     Memory          Disk    |
| Baseline code, static data and system overhead        0.0 MB         0.0 MB |
| BLAS internal memory storage                          0.0 MB         0.0 MB |
| Model and support data                                2.8 MB         0.0 MB |
| Band structure calculation requirements               0.9 MB         0.0 MB |
| Force calculation requirements                        0.2 MB         0.0 MB |
|                                               ----------------------------- |
| Approx. total storage required per process            3.8 MB         0.0 MB |
|                                                                             |
| Requirements will fluctuate during execution and may exceed these estimates |
+-----------------------------------------------------------------------------+
  =====================================================================
  +  Fermi energy for spin-degenerate system:     6.06222 eV          +
  +                                                                   +
  +       B A N D   S T R U C T U R E   C A L C U L A T I O N         +
  +      (General k-point calculation - complex wavefunctions)        +
  +                                                                   +
  + ================================================================= +
  +                                                                   +
  +     Band Structure Calculation: Progress report on root process   +
  +                                                                   +
  +   There are   10 BS k-points. Root process contains   10 of them. +
  +                                                                   +
  +   Spin= 1 of  1, K-point=   1 of   10 completed, Time:     0.08s. +
  +   Spin= 1 of  1, K-point=   2 of   10 completed, Time:     0.08s. +
  +   Spin= 1 of  1, K-point=   3 of   10 completed, Time:     0.08s. +
  +   Spin= 1 of  1, K-point=   4 of   10 completed, Time:     0.10s. +
  +   Spin= 1 of  1, K-point=   5 of   10 completed, Time:     0.08s. +
  +   Spin= 1 of  1, K-point=   6 of   10 completed, Time:     0.08s. +
  +   Spin= 1 of  1, K-point=   7 of   10 completed, Time:     0.08s. +
  +   Spin= 1 of  1, K-point=   8 of   10 completed, Time:     0.07s. +
  +   Spin= 1 of  1, K-point=   9 of   10 completed, Time:     0.08s. +
  +   Spin= 1 of  1, K-point=  10 of   10 completed, Time:     0.07s. +
  +   Finished BS calculation on root process (waiting for others).   +
  +                                                                   +
  + ================================================================= +
  +                       Electronic energies                         +
  +                       -------------------                         +
  +                                                                   +
  +   Band number   Energy in eV                                      +
  + ================================================================= +
  +                                                                   +
  + ----------------------------------------------------------------- +
  +  Spin=1 kpt=    1 ( -0.375000 -0.125000 -0.375000) kpt-group=  1  +
  + ----------------------------------------------------------------- +
  +                                                                   +
  +           1       -3.886210                                       +
  +           2        1.415392                                       +
  +           3        3.607499                                       +
  +           4        4.081763                                       +
  +           5        7.673536                                       +
  +           6        9.271186                                       +
  +           7       12.504116                                       +
  +           8       12.767632                                       +
  +           9       16.748173                                       +
  +          10       16.875287                                       +
  +          11       18.098225                                       +
  +          12       20.231105                                       +
  +          13       20.233199                                       +
  +          14       21.818121                                       +
  + ----------------------------------------------------------------- +
  +  Spin=1 kpt=    2 ( -0.375000  0.375000  0.375000) kpt-group=  1  +
  + ----------------------------------------------------------------- +
  +                                                                   +
  +           1       -2.726477                                       +
  +           2       -0.328595                                       +
  +           3        2.252337                                       +
  +           4        4.412741                                       +
  +           5        8.202319                                       +
  +           6       11.941226                                       +
  +           7       11.956228                                       +
  +           8       13.450025                                       +
  +           9       14.500193                                       +
  +          10       14.639686                                       +
  +          11       19.077951                                       +
  +          12       21.594124                                       +
  +          13       21.959136                                       +
  +          14       22.956571                                       +
  + ----------------------------------------------------------------- +
  +  Spin=1 kpt=    3 ( -0.125000 -0.375000 -0.125000) kpt-group=  1  +
  + ----------------------------------------------------------------- +
  +                                                                   +
  +           1       -4.431181                                       +
  +           2        1.687087                                       +
  +           3        3.986447                                       +
  +           4        5.568706                                       +
  +           5        9.148934                                       +
  +           6       10.063525                                       +
  +           7       10.266565                                       +
  +           8       12.728762                                       +
  +           9       13.063447                                       +
  +          10       16.182985                                       +
  +          11       16.777256                                       +
  +          12       18.888338                                       +
  +          13       20.983507                                       +
  +          14       21.947295                                       +
  + ----------------------------------------------------------------- +
  +  Spin=1 kpt=    4 ( -0.125000  0.375000  0.375000) kpt-group=  1  +
  + ----------------------------------------------------------------- +
  +                                                                   +
  +           1       -2.362806                                       +
  +           2       -0.492100                                       +
  +           3        2.814835                                       +
  +           4        3.596416                                       +
  +           5        7.213872                                       +
  +           6        8.310696                                       +
  +           7       14.892075                                       +
  +           8       14.935850                                       +
  +           9       17.440581                                       +
  +          10       17.686533                                       +
  +          11       19.332541                                       +
  +          12       19.423086                                       +
  +          13       21.559812                                       +
  +          14       22.082871                                       +
  + ----------------------------------------------------------------- +
  +  Spin=1 kpt=    5 (  0.125000 -0.375000 -0.125000) kpt-group=  1  +
  + ----------------------------------------------------------------- +
  +                                                                   +
  +           1       -3.445361                                       +
  +           2        0.477463                                       +
  +           3        2.950997                                       +
  +           4        4.368047                                       +
  +           5        9.260802                                       +
  +           6        9.975365                                       +
  +           7       11.465164                                       +
  +           8       12.448279                                       +
  +           9       15.683362                                       +
  +          10       16.282655                                       +
  +          11       18.575880                                       +
  +          12       19.719088                                       +
  +          13       20.915758                                       +
  +          14       21.981845                                       +
  + ----------------------------------------------------------------- +
  +  Spin=1 kpt=    6 (  0.125000 -0.375000  0.125000) kpt-group=  1  +
  + ----------------------------------------------------------------- +
  +                                                                   +
  +           1       -3.230660                                       +
  +           2       -0.485228                                       +
  +           3        4.032450                                       +
  +           4        4.749566                                       +
  +           5        8.607143                                       +
  +           6        9.936987                                       +
  +           7       10.531699                                       +
  +           8       13.822828                                       +
  +           9       15.435052                                       +
  +          10       17.388565                                       +
  +          11       18.078998                                       +
  +          12       18.438911                                       +
  +          13       19.122422                                       +
  +          14       21.794802                                       +
  + ----------------------------------------------------------------- +
  +  Spin=1 kpt=    7 (  0.125000 -0.125000 -0.125000) kpt-group=  1  +
  + ----------------------------------------------------------------- +
  +                                                                   +
  +           1       -4.953534                                       +
  +           2        3.110543                                       +
  +           3        4.991700                                       +
  +           4        5.093920                                       +
  +           5        8.496080                                       +
  +           6       10.147783                                       +
  +           7       10.894211                                       +
  +           8       11.180005                                       +
  +           9       14.054667                                       +
  +          10       14.881338                                       +
  +          11       16.317361                                       +
  +          12       18.012014                                       +
  +          13       19.781366                                       +
  +          14       21.159887                                       +
  + ----------------------------------------------------------------- +
  +  Spin=1 kpt=    8 (  0.125000  0.125000  0.125000) kpt-group=  1  +
  + ----------------------------------------------------------------- +
  +                                                                   +
  +           1       -5.498095                                       +
  +           2        4.743194                                       +
  +           3        6.058991                                       +
  +           4        6.062224                                       +
  +           5        8.897346                                       +
  +           6        9.360044                                       +
  +           7        9.363419                                       +
  +           8       11.176454                                       +
  +           9       13.884154                                       +
  +          10       13.884425                                       +
  +          11       14.983581                                       +
  +          12       17.086564                                       +
  +          13       18.978186                                       +
  +          14       18.980471                                       +
  + ----------------------------------------------------------------- +
  +  Spin=1 kpt=    9 (  0.375000 -0.375000  0.125000) kpt-group=  1  +
  + ----------------------------------------------------------------- +
  +                                                                   +
  +           1       -2.163335                                       +
  +           2       -0.592213                                       +
  +           3        2.169486                                       +
  +           4        3.302784                                       +
  +           5        8.765146                                       +
  +           6       10.707793                                       +
  +           7       11.752827                                       +
  +           8       13.953747                                       +
  +           9       15.073170                                       +
  +          10       17.903397                                       +
  +          11       18.953819                                       +
  +          12       20.798163                                       +
  +          13       22.280726                                       +
  +          14       23.002838                                       +
  + ----------------------------------------------------------------- +
  +  Spin=1 kpt=   10 (  0.375000  0.375000  0.375000) kpt-group=  1  +
  + ----------------------------------------------------------------- +
  +                                                                   +
  +           1       -3.975751                                       +
  +           2        0.331017                                       +
  +           3        5.237821                                       +
  +           4        5.240589                                       +
  +           5        8.144922                                       +
  +           6        9.849973                                       +
  +           7        9.854363                                       +
  +           8       14.133505                                       +
  +           9       15.260688                                       +
  +          10       15.261843                                       +
  +          11       16.103591                                       +
  +          12       20.437786                                       +
  +          13       20.731584                                       +
  +          14       20.732638                                       +
  =====================================================================

Writing model to Si2.orbitals

 ***************** Symmetrised Forces *****************
 *                                                    *
 *            Cartesian components (eV/A)             *
 * -------------------------------------------------- *
 *                   x            y            z      *
 *                                                    *
 * Si        1      0.00000      0.00000     -0.00000 *
 * Si        2      0.00000      0.00000      0.00000 *
 *                                                    *
 ******************************************************

 Pseudo atomic calculation performed for Si 3s2 3p2

 Converged in 16 iterations to a total energy of -102.0354 eV

Charge spilling parameter for spin component 1 = 0.78%

     Atomic Populations (Mulliken)
     -----------------------------
Species   Ion     s      p      d      f     Total  Charge (e)
==============================================================
  Si       1     1.35   2.65   0.00   0.00   4.00     0.00
  Si       2     1.35   2.65   0.00   0.00   4.00     0.00
==============================================================

            Bond              Population      Length (A)
============================================================
         Si 1 -- Si 2              2.99        2.33434
============================================================


Writing analysis data to Si2.castep_bin

Writing model to Si2.check
 
 A BibTeX formatted list of references used in this run has been written to 
 Si2.bib
 
Initialisation time =      0.13 s
Calculation time    =      1.74 s
Finalisation time   =      0.01 s
Total time          =      1.88 s
