 +-------------------------------------------------+
 |                                                 |
 |      CCC   AA    SSS  TTTTT  EEEEE  PPPP        |
 |     C     A  A  S       T    E      P   P       |
 |     C     AAAA   SS     T    EEE    PPPP        |
 |     C     A  A     S    T    E      P           |
 |      CCC  A  A  SSS     T    EEEEE  P           |
 |                                                 |
 +-------------------------------------------------+
 |                                                 |
 | Welcome to Materials Studio CASTEP version 3.2  |
 | Ab Initio Total Energy Program                  |
 |                                                 |
 | Authors:                                        |
 | M. Segall, M. Probert, C. Pickard, P. Hasnip    |
 | S. Clark, K. Refson, M. Payne                   |
 |                                                 |
 | Contributors:                                   |
 | P. Lindan, P. Haynes, J. White, V. Milman       |
 | N. Govind, M. Gibson, P. Tulip, V. Cocula       |
 | B. Montanari, D. Quigley                        |
 |                                                 |
 | Copyright (c) 2000,2001,2002,2003,2004          |
 |                                                 |
 | Please cite                                     |
 |                                                 |
 |    "First-principles simulation: ideas,         |
 |    illustrations and the CASTEP code",          |
 |                                                 |
 | J. Phys.: Cond. Matt. 14(11) pp.2717-2743 (2002)|
 |                                                 |
 | M. D. Segall, P. J. D. Lindan, M. J. Probert,   |
 | C. J. Pickard, P. J. Hasnip, S. J. Clark,       |
 | M. C. Payne                                     |
 |                                                 |
 |       in all publications arising from          |
 |              your use of CASTEP                 |
 |                                                 |
 +-------------------------------------------------+
 
License checkout of MS_castep successful
Number of licenses checked out     1
 
 Warning in parameters_read: number of up-spin electrons is equal to the
                             number of down-spins and spin_polarized=true
                             - consider setting spin_polarized=false.
 
 Pseudo atomic calculation performed for H 1s1
 
 Converged in 18 iterations to a total energy of -12.460019 eV
 
 
 Pseudo atomic calculation performed for C 2s2 2p2
 
 Converged in 21 iterations to a total energy of -146.419565 eV
 
Calculation parallelised over    1 nodes.
K-points are distributed over    1 groups, each containing    1 nodes.

 ************************************ Title ************************************
 CASTEP calculation from Materials Studio

 ***************************** General Parameters ******************************
  
 output verbosity                               : normal  (1)
 write checkpoint data to                       : C2H_sw.check
 type of calculation                            : geometry optimization
 stress calculation                             : on
 density difference calculation                 : off
 unlimited duration calculation
 timing information                             : on
  
 output         length unit                     : A
 output           mass unit                     : amu
 output           time unit                     : ps
 output         charge unit                     : e
 output         energy unit                     : eV
 output          force unit                     : eV/A
 output       velocity unit                     : A/ps
 output       pressure unit                     : GPa
 output     inv_length unit                     : 1/A
 output      frequency unit                     : cm-1
 output force constant unit                     : eV/A**2
 output         volume unit                     : A**3
  
 wavefunctions paging                           : none
 random number generator seed                   : randomised (171128352)
 data distribution                              : optimal for this architecture
 optimization strategy                          : balance speed and memory

 *********************** Exchange-Correlation Parameters ***********************
  
 using functional                               : Perdew Burke Ernzerhof

 ************************* Pseudopotential Parameters **************************
  
 pseudopotential representation                 : reciprocal space
 <beta|phi> representation                      : reciprocal space

 **************************** Basis Set Parameters *****************************
  
 plane wave basis set cut-off                   :   310.0000   eV
 size of standard grid                          :     1.7500
 size of fine grid                              :    15.7855   1/A
 finite basis set correction                    : automatic
 number of sample energies                      :          3
           sample  spacing                      :     5.0000   eV

 **************************** Electronic Parameters ****************************
  
 number of  electrons                           :         54
 net charge of system                           :          0
 net spin   of system                           :          0
 number of  up  spins                           :         27
 number of down spins                           :         27
 treating system as spin-polarized
 number of bands                                :         31

 ********************* Electronic Minimization Parameters **********************
  
 Method: Treating system as metallic with density mixing treatment of electrons,
         and number of  SD  steps               :          1
         and number of  CG  steps               :          4
  
 total energy / atom convergence tol.           : 0.5000E-06   eV
 eigen-energy convergence tolerance             : 0.2903E-06   eV
 convergence tolerance window                   :          3   cycles
 max. number of SCF cycles                      :        100
 number of fixed-spin iterations                :          6
 smearing scheme                                : Gaussian
 smearing width                                 : 0.1000       eV
 Fermi energy convergence tolerance             : 0.2903E-07   eV

 ************************** Density Mixing Parameters **************************
  
 density-mixing scheme                          : Pulay
 max. length of mixing history                  :         20
 charge density mixing amplitude                : 0.5000    
   spin density mixing amplitude                :  2.000    
 cut-off energy for mixing                      :  310.0       eV
 charge density mixing g-vector                 :  1.500       1/A
   spin density mixing g-vector                 :  1.500       1/A

 ********************** Geometry Optimization Parameters ***********************
  
 optimization method                            : BFGS
 variable cell method                           : fixed basis quality
 max. number of steps                           :        100
 estimated bulk modulus                         :  500.0       GPa
 estimated <frequency>                          :  1668.       cm-1
 total energy convergence tolerance             : 0.5000E-05   eV/atom
        max ionic |force| tolerance             : 0.1000E-01   eV/A
 max ionic |displacement| tolerance             : 0.5000E-03   A
   max |stress component| tolerance             : 0.2000E-01   GPa
 convergence tolerance window                   :          2   steps
 backup results every                           :          5   steps

 *******************************************************************************
  
 
                           -------------------------------
                                      Unit Cell
                           -------------------------------
        Real Lattice(A)                      Reciprocal Lattice(1/A)
   4.3551928   0.0000000   0.0000000        1.4426882   0.0000000   0.0000000
   0.0000000   2.5144717   0.0000000        0.0000000   2.4988093   0.0000000
   0.0000000   0.0000000   8.1000000        0.0000000   0.0000000   0.7757019
 
                       Lattice parameters(A)       Cell Angles
                    a =    4.355193          alpha =   90.000000
                    b =    2.514472          beta  =   90.000000
                    c =    8.100000          gamma =   90.000000
 
                       Current cell volume =   88.703173       A**3
 
                           -------------------------------
                                     Cell Contents
                           -------------------------------
                         Total number of ions in cell =   18
                      Total number of species in cell =    2
                        Max number of any one species =   12
 
            xxxxxxxxxxxxxxxxxxxxxxxxxxxxxxxxxxxxxxxxxxxxxxxxxxxxxxxxxxxx
            x  Element    Atom        Fractional coordinates of atoms  x
            x            Number           u          v          w      x
            x----------------------------------------------------------x
            x   H          1         -0.001881   0.000446   0.084429   x
            x   H          2          0.498259   0.500446   0.084456   x
            x   H          3          0.324890   0.000463   0.746552   x
            x   H          4          0.819571   0.500441   0.746611   x
            x   H          5          0.153558   0.500436   0.411676   x
            x   H          6          0.659104   0.000471   0.411682   x
            x   C          1         -0.002726   0.000464   0.946808   x
            x   C          2          0.497251   0.500442   0.946875   x
            x   C          3          0.330486   0.000461   0.615129   x
            x   C          4          0.830477   0.500442   0.615200   x
            x   C          5          0.163789   0.500456   0.280217   x
            x   C          6          0.663809   0.000489   0.280258   x
            x   C          7         -0.002825   0.000480   0.220635   x
            x   C          8          0.497205   0.500466   0.220625   x
            x   C          9          0.330563   0.000463   0.887260   x
            x   C         10          0.830566   0.500441   0.887228   x
            x   C         11          0.163817   0.500436   0.552308   x
            x   C         12          0.663823   0.000471   0.552400   x
            xxxxxxxxxxxxxxxxxxxxxxxxxxxxxxxxxxxxxxxxxxxxxxxxxxxxxxxxxxxx
 
 
                         No user defined ionic velocities
 
                           -------------------------------
                                   Details of Species
                           -------------------------------
 
                               Mass of species in AMU
                                    H      1.0080000
                                    C     12.0109997
 
                          Electric Quadrupole Moment (Barn)
                                    H      0.0028600 Isotope  2
                                    C      1.0000000 No Isotope Defined
 
                          Files used for pseudopotentials:
                                    H H_00.usp
                                    C C_00.usp
 
                           -------------------------------
                              k-Points For BZ Sampling
                           -------------------------------
                         Number of kpoints used =          90
 
             +++++++++++++++++++++++++++++++++++++++++++++++++++++++
             +  Number       Fractional coordinates        Weight  +
             +-----------------------------------------------------+
             +     1   0.416667   0.450000   0.333333   0.0111111  +
             +     2   0.416667   0.450000   0.000000   0.0111111  +
             +     3   0.416667   0.450000  -0.333333   0.0111111  +
             +     4   0.416667   0.350000   0.333333   0.0111111  +
             +     5   0.416667   0.350000   0.000000   0.0111111  +
             +     6   0.416667   0.350000  -0.333333   0.0111111  +
             +     7   0.416667   0.250000   0.333333   0.0111111  +
             +     8   0.416667   0.250000   0.000000   0.0111111  +
             +     9   0.416667   0.250000  -0.333333   0.0111111  +
             +    10   0.416667   0.150000   0.333333   0.0111111  +
             +    11   0.416667   0.150000   0.000000   0.0111111  +
             +    12   0.416667   0.150000  -0.333333   0.0111111  +
             +    13   0.416667   0.050000   0.333333   0.0111111  +
             +    14   0.416667   0.050000   0.000000   0.0111111  +
             +    15   0.416667   0.050000  -0.333333   0.0111111  +
             +    16   0.416667  -0.050000   0.333333   0.0111111  +
             +    17   0.416667  -0.050000   0.000000   0.0111111  +
             +    18   0.416667  -0.050000  -0.333333   0.0111111  +
             +    19   0.416667  -0.150000   0.333333   0.0111111  +
             +    20   0.416667  -0.150000   0.000000   0.0111111  +
             +    21   0.416667  -0.150000  -0.333333   0.0111111  +
             +    22   0.416667  -0.250000   0.333333   0.0111111  +
             +    23   0.416667  -0.250000   0.000000   0.0111111  +
             +    24   0.416667  -0.250000  -0.333333   0.0111111  +
             +    25   0.416667  -0.350000   0.333333   0.0111111  +
             +    26   0.416667  -0.350000   0.000000   0.0111111  +
             +    27   0.416667  -0.350000  -0.333333   0.0111111  +
             +    28   0.416667  -0.450000   0.333333   0.0111111  +
             +    29   0.416667  -0.450000   0.000000   0.0111111  +
             +    30   0.416667  -0.450000  -0.333333   0.0111111  +
             +    31   0.250000   0.450000   0.333333   0.0111111  +
             +    32   0.250000   0.450000   0.000000   0.0111111  +
             +    33   0.250000   0.450000  -0.333333   0.0111111  +
             +    34   0.250000   0.350000   0.333333   0.0111111  +
             +    35   0.250000   0.350000   0.000000   0.0111111  +
             +    36   0.250000   0.350000  -0.333333   0.0111111  +
             +    37   0.250000   0.250000   0.333333   0.0111111  +
             +    38   0.250000   0.250000   0.000000   0.0111111  +
             +    39   0.250000   0.250000  -0.333333   0.0111111  +
             +    40   0.250000   0.150000   0.333333   0.0111111  +
             +    41   0.250000   0.150000   0.000000   0.0111111  +
             +    42   0.250000   0.150000  -0.333333   0.0111111  +
             +    43   0.250000   0.050000   0.333333   0.0111111  +
             +    44   0.250000   0.050000   0.000000   0.0111111  +
             +    45   0.250000   0.050000  -0.333333   0.0111111  +
             +    46   0.250000  -0.050000   0.333333   0.0111111  +
             +    47   0.250000  -0.050000   0.000000   0.0111111  +
             +    48   0.250000  -0.050000  -0.333333   0.0111111  +
             +    49   0.250000  -0.150000   0.333333   0.0111111  +
             +    50   0.250000  -0.150000   0.000000   0.0111111  +
             +    51   0.250000  -0.150000  -0.333333   0.0111111  +
             +    52   0.250000  -0.250000   0.333333   0.0111111  +
             +    53   0.250000  -0.250000   0.000000   0.0111111  +
             +    54   0.250000  -0.250000  -0.333333   0.0111111  +
             +    55   0.250000  -0.350000   0.333333   0.0111111  +
             +    56   0.250000  -0.350000   0.000000   0.0111111  +
             +    57   0.250000  -0.350000  -0.333333   0.0111111  +
             +    58   0.250000  -0.450000   0.333333   0.0111111  +
             +    59   0.250000  -0.450000   0.000000   0.0111111  +
             +    60   0.250000  -0.450000  -0.333333   0.0111111  +
             +    61   0.083333   0.450000   0.333333   0.0111111  +
             +    62   0.083333   0.450000   0.000000   0.0111111  +
             +    63   0.083333   0.450000  -0.333333   0.0111111  +
             +    64   0.083333   0.350000   0.333333   0.0111111  +
             +    65   0.083333   0.350000   0.000000   0.0111111  +
             +    66   0.083333   0.350000  -0.333333   0.0111111  +
             +    67   0.083333   0.250000   0.333333   0.0111111  +
             +    68   0.083333   0.250000   0.000000   0.0111111  +
             +    69   0.083333   0.250000  -0.333333   0.0111111  +
             +    70   0.083333   0.150000   0.333333   0.0111111  +
             +    71   0.083333   0.150000   0.000000   0.0111111  +
             +    72   0.083333   0.150000  -0.333333   0.0111111  +
             +    73   0.083333   0.050000   0.333333   0.0111111  +
             +    74   0.083333   0.050000   0.000000   0.0111111  +
             +    75   0.083333   0.050000  -0.333333   0.0111111  +
             +    76   0.083333  -0.050000   0.333333   0.0111111  +
             +    77   0.083333  -0.050000   0.000000   0.0111111  +
             +    78   0.083333  -0.050000  -0.333333   0.0111111  +
             +    79   0.083333  -0.150000   0.333333   0.0111111  +
             +    80   0.083333  -0.150000   0.000000   0.0111111  +
             +    81   0.083333  -0.150000  -0.333333   0.0111111  +
             +    82   0.083333  -0.250000   0.333333   0.0111111  +
             +    83   0.083333  -0.250000   0.000000   0.0111111  +
             +    84   0.083333  -0.250000  -0.333333   0.0111111  +
             +    85   0.083333  -0.350000   0.333333   0.0111111  +
             +    86   0.083333  -0.350000   0.000000   0.0111111  +
             +    87   0.083333  -0.350000  -0.333333   0.0111111  +
             +    88   0.083333  -0.450000   0.333333   0.0111111  +
             +    89   0.083333  -0.450000   0.000000   0.0111111  +
             +    90   0.083333  -0.450000  -0.333333   0.0111111  +
             +++++++++++++++++++++++++++++++++++++++++++++++++++++++
 
                           -------------------------------
                               Symmetry and Constraints
                           -------------------------------
 
         There are no symmetry operations specified or generated for this cell
 
                        Centre of mass is NOT constrained
       There are no ionic constraints specified or generated for this cell
 
                         Number of cell constraints= 0
                         Cell constraints are:  1 2 3 4 5 6
 
                         External pressure/stress (GPa)
                          0.00000   0.00000   0.00000
                                    0.00000   0.00000
                                              0.00000
Calculating finite basis set correction with  3 cut-off energies.
Calculating total energy with cut-off of  300.000eV.
------------------------------------------------------------------------ <-- SCF
SCF loop      Energy           Fermi           Energy gain       Timer   <-- SCF
                               energy          per atom          (sec)   <-- SCF
------------------------------------------------------------------------ <-- SCF
Initial  -2.85875972E+002  5.48391443E+001                       106.77  <-- SCF
      1  -1.79856322E+003  1.13255948E+001   8.40381803E+001     234.61  <-- SCF
      2  -1.94813864E+003  7.53502851E+000   8.30974590E+000     345.47  <-- SCF
      3  -1.94972871E+003  8.47518375E+000   8.83369944E-002     496.08  <-- SCF
      4  -1.94882497E+003  9.05664627E+000  -5.02075679E-002     659.12  <-- SCF
      5  -1.94884156E+003  9.12310771E+000   9.21273763E-004     818.38  <-- SCF
      6  -1.94885479E+003  9.16333371E+000   7.34953221E-004     986.58  <-- SCF
      7  -1.94885663E+003  9.15985107E+000   1.02292685E-004    1145.52  <-- SCF
      8  -1.94885750E+003  9.15865460E+000   4.83547411E-005    1312.62  <-- SCF
      9  -1.94885769E+003  9.15913900E+000   1.08752982E-005    1454.88  <-- SCF
     10  -1.94885772E+003  9.16001243E+000   1.27345240E-006    1569.61  <-- SCF
     11  -1.94885773E+003  9.16067872E+000   5.30801615E-007    1682.02  <-- SCF
     12  -1.94885773E+003  9.16080534E+000   7.82566057E-008    1792.92  <-- SCF
     13  -1.94885773E+003  9.16082160E+000  -3.28623073E-008    1896.53  <-- SCF
------------------------------------------------------------------------ <-- SCF
 
 2*Integrated Spin Density   =   -0.727668E-05
 2*Integrated |Spin Density| =    0.262698E-03
 
Final energy, E             =  -1948.843809394     eV
Final free energy (E-TS)    =  -1948.857726029     eV
(energies not corrected for finite basis set)
 
NB est. 0K energy (E-0.5TS) =  -1948.850767711     eV
 
Calculating total energy with cut-off of  305.000eV.
------------------------------------------------------------------------ <-- SCF
SCF loop      Energy           Fermi           Energy gain       Timer   <-- SCF
                               energy          per atom          (sec)   <-- SCF
------------------------------------------------------------------------ <-- SCF
Initial  -1.94885773E+003  9.16083481E+000                      2024.02  <-- SCF
      1  -1.94893989E+003  9.15786512E+000   4.56460256E-003    2131.73  <-- SCF
      2  -1.94893992E+003  9.15786607E+000   1.49964732E-006    2229.81  <-- SCF
      3  -1.94893995E+003  9.15845524E+000   2.07710837E-006    2333.61  <-- SCF
      4  -1.94893997E+003  9.15890865E+000   1.15999083E-006    2446.67  <-- SCF
      5  -1.94893997E+003  9.15887495E+000   2.11943049E-008    2549.94  <-- SCF
      6  -1.94893997E+003  9.15885144E+000   5.18023620E-010    2647.86  <-- SCF
------------------------------------------------------------------------ <-- SCF
 
 2*Integrated Spin Density   =   -0.758428E-06
 2*Integrated |Spin Density| =    0.305186E-04
 
Final energy, E             =  -1948.926044478     eV
Final free energy (E-TS)    =  -1948.939974446     eV
(energies not corrected for finite basis set)
 
NB est. 0K energy (E-0.5TS) =  -1948.933009462     eV
 
Calculating total energy with cut-off of  310.000eV.
------------------------------------------------------------------------ <-- SCF
SCF loop      Energy           Fermi           Energy gain       Timer   <-- SCF
                               energy          per atom          (sec)   <-- SCF
------------------------------------------------------------------------ <-- SCF
Initial  -1.94893997E+003  9.15883225E+000                      2782.64  <-- SCF
      1  -1.94900388E+003  9.15689758E+000   3.55054781E-003    2896.45  <-- SCF
      2  -1.94900390E+003  9.15689800E+000   1.10281054E-006    2992.58  <-- SCF
      3  -1.94900393E+003  9.15736198E+000   1.48704795E-006    3086.31  <-- SCF
      4  -1.94900395E+003  9.15768581E+000   8.55700474E-007    3180.66  <-- SCF
      5  -1.94900395E+003  9.15766606E+000   1.29140906E-008    3273.12  <-- SCF
      6  -1.94900395E+003  9.15764715E+000  -2.44353845E-009    3375.86  <-- SCF
------------------------------------------------------------------------ <-- SCF
 
 2*Integrated Spin Density   =   -0.204678E-06
 2*Integrated |Spin Density| =    0.303209E-05
 
Final energy, E             =  -1948.990055518     eV
Final free energy (E-TS)    =  -1949.003946644     eV
(energies not corrected for finite basis set)
 
NB est. 0K energy (E-0.5TS) =  -1948.997001081     eV
 
 For future reference: finite basis dEtot/dlog(Ecut) =      -4.502343eV
 Total energy corrected for finite basis set =   -1949.005707 eV
 
 ******************************** Forces *********************************
 *                                                                       *
 *                      Cartesian components (eV/A)                      *
 * --------------------------------------------------------------------- *
 *              x                    y                    z              *
 *                                                                       *
 * H    1      0.02414             -0.00136              0.15556         *
 * H    2      0.02722             -0.00092              0.17267         *
 * H    3     -0.01176             -0.00128              1.42965         *
 * H    4     -0.03353             -0.00087              1.42474         *
 * H    5     -0.01613             -0.00098              1.71138         *
 * H    6      0.00220             -0.00140              1.71975         *
 * C    1      0.07897             -0.00056             -9.84088         *
 * C    2      0.06278             -0.00185             -9.80999         *
 * C    3      0.11965             -0.00050            -11.19992         *
 * C    4      0.15993             -0.00118            -11.12231         *
 * C    5      0.18121             -0.00116            -10.39356         *
 * C    6      0.13462             -0.00041            -10.40179         *
 * C    7     -0.19509              0.00635              9.13174         *
 * C    8     -0.14940             -0.00063              9.28121         *
 * C    9     -0.14109              0.00618              9.34386         *
 * C   10     -0.04832             -0.00058              9.36342         *
 * C   11     -0.07333             -0.00072              9.58605         *
 * C   12     -0.12205              0.00188              9.44842         *
 *                                                                       *
 *************************************************************************
 
 ***************** Stress Tensor *****************
 *                                               *
 *          Cartesian components (GPa)           *
 * --------------------------------------------- *
 *             x             y             z     *
 *                                               *
 *  x     12.450938     -0.000337      0.756373  *
 *  y     -0.000337     11.868536     -0.000187  *
 *  z      0.756373     -0.000187   -145.769783  *
 *                                               *
 *  Pressure:   40.4834                          *
 *                                               *
 *************************************************
 BFGS: finished iteration   0  with enthalpy= -1.94900571E+003 eV
  
 +-----------+-----------------+-----------------+------------+-----+ <-- BFGS
 | Parameter |      value      |    tolerance    |    units   | OK? | <-- BFGS
 +-----------+-----------------+-----------------+------------+-----+ <-- BFGS
 |  dE/ion   |   0.000000E+000 |   5.000000E-006 |         eV | No  | <-- BFGS
 |  |F|max   |   1.120056E+001 |   1.000000E-002 |       eV/A | No  | <-- BFGS
 |  |dR|max  |   0.000000E+000 |   5.000000E-004 |          A | Yes | <-- BFGS
 |   Smax    |   1.457698E+002 |   2.000000E-002 |        GPa | No  | <-- BFGS
 +-----------+-----------------+-----------------+------------+-----+ <-- BFGS
  

================================================================================
 Starting BFGS iteration          1 ...
================================================================================
  
 +------------+-------------+-------------+-----------------+ <-- min BFGS
 |    Step    |   lambda    |   F.delta   |    enthalpy     | <-- min BFGS
 +------------+-------------+-------------+-----------------+ <-- min BFGS
 |  previous  |    0.000000 |    0.806528 |    -1949.005707 | <-- min BFGS
 +------------+-------------+-------------+-----------------+ <-- min BFGS
  

--------------------------------------------------------------------------------
 BFGS: starting iteration         1 with trial guess (lambda=  0.336127)
--------------------------------------------------------------------------------
 
                           -------------------------------
                                      Unit Cell
                           -------------------------------
        Real Lattice(A)              Reciprocal Lattice(1/A)
   4.3430415   0.0000003  -0.0007382        1.4467247  -0.0000001   0.0002375
   0.0000002   2.5077843   0.0000001       -0.0000002   2.5054728  -0.0000001
  -0.0013729   0.0000003   8.3645850        0.0001277   0.0000000   0.7511652
 
                       Lattice parameters(A)       Cell Angles
                    a =    4.343042          alpha =   89.999995
                    b =    2.507784          beta  =   90.019142
                    c =    8.364585          gamma =   89.999991
 
                Current cell volume =   91.102134 A**3
 
                           -------------------------------
                                     Cell Contents
                           -------------------------------
 
            xxxxxxxxxxxxxxxxxxxxxxxxxxxxxxxxxxxxxxxxxxxxxxxxxxxxxxxxxxxx
            x  Element    Atom        Fractional coordinates of atoms  x
            x            Number           u          v          w      x
            x----------------------------------------------------------x
            x   H          1         -0.001860   0.000444   0.084505   x
            x   H          2          0.498284   0.500444   0.084540   x
            x   H          3          0.324879   0.000461   0.747247   x
            x   H          4          0.819540   0.500439   0.747304   x
            x   H          5          0.153543   0.500434   0.412508   x
            x   H          6          0.659106   0.000469   0.412518   x
            x   C          1         -0.002654   0.000463   0.942023   x
            x   C          2          0.497308   0.500439   0.942105   x
            x   C          3          0.330595   0.000460   0.609683   x
            x   C          4          0.830621   0.500440   0.609792   x
            x   C          5          0.163953   0.500454   0.275163   x
            x   C          6          0.663930   0.000488   0.275201   x
            x   C          7         -0.003002   0.000490   0.225076   x
            x   C          8          0.497070   0.500465   0.225137   x
            x   C          9          0.330435   0.000473   0.891803   x
            x   C         10          0.830522   0.500440   0.891780   x
            x   C         11          0.163750   0.500434   0.556970   x
            x   C         12          0.663713   0.000474   0.556994   x
            xxxxxxxxxxxxxxxxxxxxxxxxxxxxxxxxxxxxxxxxxxxxxxxxxxxxxxxxxxxx
 
 
------------------------------------------------------------------------ <-- SCF
SCF loop      Energy           Fermi           Energy gain       Timer   <-- SCF
                               energy          per atom          (sec)   <-- SCF
------------------------------------------------------------------------ <-- SCF
Initial  -1.84571153E+003  7.49668384E+000                      3608.80  <-- SCF
      1  -1.96034215E+003  7.23847143E+000   6.36836753E+000    3728.67  <-- SCF
      2  -1.96038318E+003  7.23394543E+000   2.27937725E-003    3851.53  <-- SCF
      3  -1.95593561E+003  7.93935633E+000  -2.47087034E-001    4005.70  <-- SCF
      4  -1.95485116E+003  8.57630421E+000  -6.02471416E-002    4152.33  <-- SCF
      5  -1.95488139E+003  8.60743273E+000   1.67929431E-003    4319.53  <-- SCF
      6  -1.95488820E+003  8.62024785E+000   3.78395085E-004    4476.75  <-- SCF
      7  -1.95488931E+003  8.62449000E+000   6.17691997E-005    4663.64  <-- SCF
      8  -1.95488942E+003  8.62599728E+000   6.03322487E-006    4795.80  <-- SCF
      9  -1.95488944E+003  8.62668506E+000   9.03809900E-007    4925.94  <-- SCF
     10  -1.95488944E+003  8.62670539E+000   6.69509813E-008    5063.66  <-- SCF
     11  -1.95488944E+003  8.62677006E+000   1.35942262E-008    5186.02  <-- SCF
------------------------------------------------------------------------ <-- SCF
 
 2*Integrated Spin Density   =   -0.326163E-05
 2*Integrated |Spin Density| =    0.252732E-04
 
Final energy, E             =  -1954.874436978     eV
Final free energy (E-TS)    =  -1954.889437672     eV
(energies not corrected for finite basis set)
 
NB est. 0K energy (E-0.5TS) =  -1954.881937325     eV
 
 
 ******************************** Forces *********************************
 *                                                                       *
 *                      Cartesian components (eV/A)                      *
 * --------------------------------------------------------------------- *
 *              x                    y                    z              *
 *                                                                       *
 * H    1      0.00441             -0.00059              0.05386         *
 * H    2      0.00409             -0.00028              0.07196         *
 * H    3      0.07786             -0.00074              0.43959         *
 * H    4      0.14073             -0.00029              0.44393         *
 * H    5      0.14129             -0.00028              0.74091         *
 * H    6      0.07392             -0.00072              0.73580         *
 * C    1     -0.00023             -0.00025             -5.91502         *
 * C    2     -0.01156             -0.00035             -5.85199         *
 * C    3     -0.01986              0.00003             -6.47013         *
 * C    4     -0.04200             -0.00028             -6.39693         *
 * C    5     -0.02226              0.00017             -5.78734         *
 * C    6     -0.00210             -0.00013             -5.81197         *
 * C    7     -0.03591              0.00018              5.27827         *
 * C    8     -0.05449             -0.00008              5.32973         *
 * C    9     -0.03906              0.00033              5.75937         *
 * C   10     -0.05530              0.00006              5.72345         *
 * C   11     -0.07383              0.00027              5.83414         *
 * C   12     -0.08570              0.00296              5.82237         *
 *                                                                       *
 *************************************************************************
 
 ***************** Stress Tensor *****************
 *                                               *
 *          Cartesian components (GPa)           *
 * --------------------------------------------- *
 *             x             y             z     *
 *                                               *
 *  x      7.766976     -0.000188      0.370638  *
 *  y     -0.000188      7.709717     -0.003028  *
 *  z      0.370638     -0.003028    -90.481760  *
 *                                               *
 *  Pressure:   25.0017                          *
 *                                               *
 *************************************************
  
 +------------+-------------+-------------+-----------------+ <-- min BFGS
 |    Step    |   lambda    |   F.delta   |    enthalpy     | <-- min BFGS
 +------------+-------------+-------------+-----------------+ <-- min BFGS
 |  previous  |    0.000000 |    0.806528 |    -1949.005707 | <-- min BFGS
 | trial step |    0.336127 |    0.491687 |    -1954.890232 | <-- min BFGS
 +------------+-------------+-------------+-----------------+ <-- min BFGS
  
 BFGS: finished iteration   1  with enthalpy= -1.95489023E+003 eV
  
 +-----------+-----------------+-----------------+------------+-----+ <-- BFGS
 | Parameter |      value      |    tolerance    |    units   | OK? | <-- BFGS
 +-----------+-----------------+-----------------+------------+-----+ <-- BFGS
 |  dE/ion   |   3.269180E-001 |   5.000000E-006 |         eV | No  | <-- BFGS
 |  |F|max   |   6.470158E+000 |   1.000000E-002 |       eV/A | No  | <-- BFGS
 |  |dR|max  |   4.555383E-002 |   5.000000E-004 |          A | No  | <-- BFGS
 |   Smax    |   9.048176E+001 |   2.000000E-002 |        GPa | No  | <-- BFGS
 +-----------+-----------------+-----------------+------------+-----+ <-- BFGS
  

================================================================================
 Starting BFGS iteration          2 ...
================================================================================
  
 +------------+-------------+-------------+-----------------+ <-- min BFGS
 |    Step    |   lambda    |   F.delta   |    enthalpy     | <-- min BFGS
 +------------+-------------+-------------+-----------------+ <-- min BFGS
 |  previous  |    0.000000 |    0.261624 |    -1954.890232 | <-- min BFGS
 +------------+-------------+-------------+-----------------+ <-- min BFGS
  

--------------------------------------------------------------------------------
 BFGS: starting iteration         2 with trial guess (lambda=  0.612223)
--------------------------------------------------------------------------------
 
                           -------------------------------
                                      Unit Cell
                           -------------------------------
        Real Lattice(A)              Reciprocal Lattice(1/A)
   4.3294649   0.0000006  -0.0010187        1.4512615  -0.0000002   0.0003236
   0.0000003   2.4994868   0.0000081       -0.0000003   2.5137902  -0.0000073
  -0.0019243   0.0000252   8.6291731        0.0001713  -0.0000024   0.7281330
 
                       Lattice parameters(A)       Cell Angles
                    a =    4.329465          alpha =   89.999647
                    b =    2.499487          beta  =   90.026258
                    c =    8.629173          gamma =   89.999984
 
                Current cell volume =   93.380075 A**3
 
                           -------------------------------
                                     Cell Contents
                           -------------------------------
 
            xxxxxxxxxxxxxxxxxxxxxxxxxxxxxxxxxxxxxxxxxxxxxxxxxxxxxxxxxxxx
            x  Element    Atom        Fractional coordinates of atoms  x
            x            Number           u          v          w      x
            x----------------------------------------------------------x
            x   H          1         -0.001882   0.000443   0.084489   x
            x   H          2          0.498254   0.500445   0.084551   x
            x   H          3          0.325226   0.000460   0.746970   x
            x   H          4          0.820189   0.500440   0.747041   x
            x   H          5          0.154165   0.500435   0.412679   x
            x   H          6          0.659413   0.000468   0.412670   x
            x   C          1         -0.002785   0.000463   0.937163   x
            x   C          2          0.497157   0.500442   0.937364   x
            x   C          3          0.330312   0.000461   0.604765   x
            x   C          4          0.830177   0.500441   0.604974   x
            x   C          5          0.163555   0.500459   0.271108   x
            x   C          6          0.663697   0.000489   0.271095   x
            x   C          7         -0.002825   0.000473   0.229092   x
            x   C          8          0.497091   0.500466   0.229138   x
            x   C          9          0.330507   0.000457   0.896753   x
            x   C         10          0.830367   0.500442   0.896628   x
            x   C         11          0.163560   0.500438   0.561873   x
            x   C         12          0.663556   0.000490   0.561996   x
            xxxxxxxxxxxxxxxxxxxxxxxxxxxxxxxxxxxxxxxxxxxxxxxxxxxxxxxxxxxx
 
 
------------------------------------------------------------------------ <-- SCF
SCF loop      Energy           Fermi           Energy gain       Timer   <-- SCF
                               energy          per atom          (sec)   <-- SCF
------------------------------------------------------------------------ <-- SCF
Initial  -1.85358220E+003  7.16940923E+000                      5427.50  <-- SCF
      1  -1.96357322E+003  6.91356761E+000   6.11061235E+000    5525.08  <-- SCF
      2  -1.96361210E+003  6.91058898E+000   2.16013012E-003    5634.34  <-- SCF
      3  -1.95914287E+003  7.58288596E+000  -2.48290584E-001    5767.89  <-- SCF
      4  -1.95809636E+003  8.16358434E+000  -5.81392507E-002    5902.30  <-- SCF
      5  -1.95812406E+003  8.20147787E+000   1.53889787E-003    6052.55  <-- SCF
      6  -1.95813174E+003  8.21832707E+000   4.26364876E-004    6192.00  <-- SCF
      7  -1.95813283E+003  8.22366306E+000   6.06816094E-005    6332.38  <-- SCF
      8  -1.95813301E+003  8.22590145E+000   9.76772794E-006    6446.45  <-- SCF
      9  -1.95813302E+003  8.22639676E+000   5.65089953E-007    6541.73  <-- SCF
     10  -1.95813302E+003  8.22652592E+000   4.22481744E-008    6638.73  <-- SCF
     11  -1.95813302E+003  8.22656734E+000   2.20640939E-008    6731.81  <-- SCF
------------------------------------------------------------------------ <-- SCF
 
 2*Integrated Spin Density   =   -0.118070E-04
 2*Integrated |Spin Density| =    0.719703E-04
 
Final energy, E             =  -1958.117866244     eV
Final free energy (E-TS)    =  -1958.133018501     eV
(energies not corrected for finite basis set)
 
NB est. 0K energy (E-0.5TS) =  -1958.125442372     eV
 
 
 ******************************** Forces *********************************
 *                                                                       *
 *                      Cartesian components (eV/A)                      *
 * --------------------------------------------------------------------- *
 *              x                    y                    z              *
 *                                                                       *
 * H    1     -0.00675             -0.00019              0.20758         *
 * H    2     -0.01085              0.00001              0.23021         *
 * H    3      0.11626             -0.00050              0.09179         *
 * H    4      0.21267             -0.00001              0.10110         *
 * H    5      0.20552              0.00004              0.33091         *
 * H    6      0.10567             -0.00030              0.31335         *
 * C    1     -0.04839              0.00097             -2.84865         *
 * C    2     -0.02638             -0.00024             -2.85297         *
 * C    3     -0.08083              0.00059             -2.93633         *
 * C    4     -0.08369              0.00183             -2.92098         *
 * C    5     -0.01723             -0.00031             -2.58461         *
 * C    6     -0.01895             -0.00017             -2.55072         *
 * C    7     -0.06261              0.00058              2.19966         *
 * C    8     -0.06189             -0.00024              2.29617         *
 * C    9     -0.03791              0.00058              2.68003         *
 * C   10     -0.03950             -0.00022              2.72088         *
 * C   11     -0.09726              0.00005              2.81154         *
 * C   12     -0.04790             -0.00246              2.71104         *
 *                                                                       *
 *************************************************************************
 
 ***************** Stress Tensor *****************
 *                                               *
 *          Cartesian components (GPa)           *
 * --------------------------------------------- *
 *             x             y             z     *
 *                                               *
 *  x      2.617803      0.000101     -0.063561  *
 *  y      0.000101      2.393142     -0.000985  *
 *  z     -0.063561     -0.000985    -52.102520  *
 *                                               *
 *  Pressure:   15.6972                          *
 *                                               *
 *************************************************
  
 +------------+-------------+-------------+-----------------+ <-- min BFGS
 |    Step    |   lambda    |   F.delta   |    enthalpy     | <-- min BFGS
 +------------+-------------+-------------+-----------------+ <-- min BFGS
 |  previous  |    0.000000 |    0.261624 |    -1954.890232 | <-- min BFGS
 | trial step |    0.612223 |    0.133598 |    -1958.132836 | <-- min BFGS
 +------------+-------------+-------------+-----------------+ <-- min BFGS
  

--------------------------------------------------------------------------------
 BFGS: improving iteration         2 with line minimization (lambda=  1.251095)
--------------------------------------------------------------------------------
 
                           -------------------------------
                                      Unit Cell
                           -------------------------------
        Real Lattice(A)              Reciprocal Lattice(1/A)
   4.3152974   0.0000009  -0.0013114        1.4560262  -0.0000003   0.0004087
   0.0000005   2.4908280   0.0000164       -0.0000005   2.5225288  -0.0000145
  -0.0024996   0.0000512   8.9052783        0.0002144  -0.0000047   0.7055575
 
                       Lattice parameters(A)       Cell Angles
                    a =    4.315298          alpha =   89.999293
                    b =    2.490828          beta  =   90.033495
                    c =    8.905279          gamma =   89.999977
 
                Current cell volume =   95.719831 A**3
 
                           -------------------------------
                                     Cell Contents
                           -------------------------------
 
            xxxxxxxxxxxxxxxxxxxxxxxxxxxxxxxxxxxxxxxxxxxxxxxxxxxxxxxxxxxx
            x  Element    Atom        Fractional coordinates of atoms  x
            x            Number           u          v          w      x
            x----------------------------------------------------------x
            x   H          1         -0.001906   0.000443   0.084472   x
            x   H          2          0.498224   0.500446   0.084562   x
            x   H          3          0.325589   0.000458   0.746680   x
            x   H          4          0.820866   0.500440   0.746767   x
            x   H          5          0.154813   0.500436   0.412857   x
            x   H          6          0.659733   0.000467   0.412828   x
            x   C          1         -0.002922   0.000463   0.932091   x
            x   C          2          0.496999   0.500445   0.932417   x
            x   C          3          0.330018   0.000463   0.599633   x
            x   C          4          0.829714   0.500443   0.599947   x
            x   C          5          0.163140   0.500464   0.266876   x
            x   C          6          0.663453   0.000489   0.266810   x
            x   C          7         -0.002640   0.000454   0.233284   x
            x   C          8          0.497112   0.500467   0.233313   x
            x   C          9          0.330581   0.000441   0.901918   x
            x   C         10          0.830206   0.500444   0.901687   x
            x   C         11          0.163362   0.500443   0.566990   x
            x   C         12          0.663391   0.000507   0.567215   x
            xxxxxxxxxxxxxxxxxxxxxxxxxxxxxxxxxxxxxxxxxxxxxxxxxxxxxxxxxxxx
 
 
------------------------------------------------------------------------ <-- SCF
SCF loop      Energy           Fermi           Energy gain       Timer   <-- SCF
                               energy          per atom          (sec)   <-- SCF
------------------------------------------------------------------------ <-- SCF
Initial  -1.85982194E+003  6.97818668E+000                      6935.28  <-- SCF
      1  -1.96505841E+003  6.69558108E+000   5.84647059E+000    7043.98  <-- SCF
      2  -1.96510357E+003  6.69342062E+000   2.50889532E-003    7150.98  <-- SCF
      3  -1.96047329E+003  7.32883242E+000  -2.57237620E-001    7287.47  <-- SCF
      4  -1.95945970E+003  7.85523242E+000  -5.63109600E-002    7431.80  <-- SCF
      5  -1.95948299E+003  7.90181956E+000   1.29425853E-003    7563.69  <-- SCF
      6  -1.95949171E+003  7.92250798E+000   4.84477739E-004    7754.42  <-- SCF
      7  -1.95949282E+003  7.92765853E+000   6.14088717E-005    7906.36  <-- SCF
      8  -1.95949307E+003  7.93099589E+000   1.41805853E-005    8044.08  <-- SCF
      9  -1.95949308E+003  7.93138728E+000   4.31123090E-007    8147.17  <-- SCF
     10  -1.95949308E+003  7.93153866E+000   5.88957602E-008    8249.75  <-- SCF
------------------------------------------------------------------------ <-- SCF
 
 2*Integrated Spin Density   =   -0.240580E-04
 2*Integrated |Spin Density| =    0.921300E-04
 
Final energy, E             =  -1959.480927701     eV
Final free energy (E-TS)    =  -1959.493082796     eV
(energies not corrected for finite basis set)
 
NB est. 0K energy (E-0.5TS) =  -1959.487005248     eV
 
 
 ******************************** Forces *********************************
 *                                                                       *
 *                      Cartesian components (eV/A)                      *
 * --------------------------------------------------------------------- *
 *              x                    y                    z              *
 *                                                                       *
 * H    1      0.00259             -0.00121              0.49434         *
 * H    2     -0.00413             -0.00102              0.51407         *
 * H    3      0.13684             -0.00158             -0.06380         *
 * H    4      0.23778             -0.00103             -0.05396         *
 * H    5      0.23018             -0.00095              0.06968         *
 * H    6      0.12568             -0.00117              0.04011         *
 * C    1     -0.05072              0.00419             -0.54173         *
 * C    2      0.03908             -0.00236             -0.48250         *
 * C    3     -0.12244              0.00619             -0.16149         *
 * C    4     -0.00197              0.00294             -0.14199         *
 * C    5      0.10670             -0.00298              0.02563         *
 * C    6     -0.01503              0.00505              0.06859         *
 * C    7     -0.16794              0.00198             -0.33226         *
 * C    8     -0.12447             -0.00147             -0.25733         *
 * C    9     -0.10001              0.00136              0.18142         *
 * C   10     -0.04501             -0.00137              0.21428         *
 * C   11     -0.14700             -0.00138              0.25673         *
 * C   12     -0.10014             -0.00520              0.17019         *
 *                                                                       *
 *************************************************************************
 
 ***************** Stress Tensor *****************
 *                                               *
 *          Cartesian components (GPa)           *
 * --------------------------------------------- *
 *             x             y             z     *
 *                                               *
 *  x     -2.820453      0.001404     -0.432501  *
 *  y      0.001404     -3.446124      0.002488  *
 *  z     -0.432501      0.002488    -24.539217  *
 *                                               *
 *  Pressure:   10.2686                          *
 *                                               *
 *************************************************
  
 +------------+-------------+-------------+-----------------+ <-- min BFGS
 |    Step    |   lambda    |   F.delta   |    enthalpy     | <-- min BFGS
 +------------+-------------+-------------+-----------------+ <-- min BFGS
 |  previous  |    0.000000 |    0.261624 |    -1954.890232 | <-- min BFGS
 | trial step |    0.612223 |    0.133598 |    -1958.132836 | <-- min BFGS
 |  line step |    1.251095 |    0.029656 |    -1959.494219 | <-- min BFGS
 +------------+-------------+-------------+-----------------+ <-- min BFGS
  
 BFGS: finished iteration   2  with enthalpy= -1.95949422E+003 eV
  
 +-----------+-----------------+-----------------+------------+-----+ <-- BFGS
 | Parameter |      value      |    tolerance    |    units   | OK? | <-- BFGS
 +-----------+-----------------+-----------------+------------+-----+ <-- BFGS
 |  dE/ion   |   2.557770E-001 |   5.000000E-006 |         eV | No  | <-- BFGS
 |  |F|max   |   5.441133E-001 |   1.000000E-002 |       eV/A | No  | <-- BFGS
 |  |dR|max  |   9.103572E-002 |   5.000000E-004 |          A | No  | <-- BFGS
 |   Smax    |   2.453922E+001 |   2.000000E-002 |        GPa | No  | <-- BFGS
 +-----------+-----------------+-----------------+------------+-----+ <-- BFGS
  

================================================================================
 Starting BFGS iteration          3 ...
================================================================================
  
 +------------+-------------+-------------+-----------------+ <-- min BFGS
 |    Step    |   lambda    |   F.delta   |    enthalpy     | <-- min BFGS
 +------------+-------------+-------------+-----------------+ <-- min BFGS
 |  previous  |    0.000000 |    0.011595 |    -1959.494219 | <-- min BFGS
 +------------+-------------+-------------+-----------------+ <-- min BFGS
  

--------------------------------------------------------------------------------
 BFGS: starting iteration         3 with trial guess (lambda=  1.000000)
--------------------------------------------------------------------------------
 
                           -------------------------------
                                      Unit Cell
                           -------------------------------
        Real Lattice(A)              Reciprocal Lattice(1/A)
   4.3241364  -0.0000041   0.0003000        1.4530497   0.0000014  -0.0000267
  -0.0000024   2.4970742   0.0000127        0.0000024   2.5162189  -0.0000115
   0.0001670   0.0000415   9.0717815       -0.0000480  -0.0000035   0.6926077
 
                       Lattice parameters(A)       Cell Angles
                    a =    4.324136          alpha =   89.999446
                    b =    2.497074          beta  =   89.994971
                    c =    9.071782          gamma =   90.000109
 
                Current cell volume =   97.954279 A**3
 
                           -------------------------------
                                     Cell Contents
                           -------------------------------
 
            xxxxxxxxxxxxxxxxxxxxxxxxxxxxxxxxxxxxxxxxxxxxxxxxxxxxxxxxxxxx
            x  Element    Atom        Fractional coordinates of atoms  x
            x            Number           u          v          w      x
            x----------------------------------------------------------x
            x   H          1         -0.001906   0.000437   0.085344   x
            x   H          2          0.498201   0.500441   0.085475   x
            x   H          3          0.326078   0.000450   0.746406   x
            x   H          4          0.821727   0.500435   0.746514   x
            x   H          5          0.155643   0.500431   0.412901   x
            x   H          6          0.660177   0.000461   0.412813   x
            x   C          1         -0.003113   0.000484   0.930745   x
            x   C          2          0.497076   0.500433   0.931201   x
            x   C          3          0.329573   0.000496   0.599051   x
            x   C          4          0.829591   0.500459   0.599416   x
            x   C          5          0.163351   0.500449   0.266760   x
            x   C          6          0.663340   0.000515   0.266762   x
            x   C          7         -0.003081   0.000460   0.232928   x
            x   C          8          0.496762   0.500460   0.233077   x
            x   C          9          0.330314   0.000443   0.902672   x
            x   C         10          0.830043   0.500438   0.902476   x
            x   C         11          0.162888   0.500437   0.567852   x
            x   C         12          0.663072   0.000483   0.567953   x
            xxxxxxxxxxxxxxxxxxxxxxxxxxxxxxxxxxxxxxxxxxxxxxxxxxxxxxxxxxxx
 
 
------------------------------------------------------------------------ <-- SCF
SCF loop      Energy           Fermi           Energy gain       Timer   <-- SCF
                               energy          per atom          (sec)   <-- SCF
------------------------------------------------------------------------ <-- SCF
Initial  -1.85747121E+003  6.55609938E+000                      8460.19  <-- SCF
      1  -1.96516648E+003  6.45151539E+000   5.98307041E+000    8575.75  <-- SCF
      2  -1.96518892E+003  6.45039810E+000   1.24666528E-003    8700.39  <-- SCF
      3  -1.96065378E+003  7.06691070E+000  -2.51952222E-001    8849.97  <-- SCF
      4  -1.95968318E+003  7.56467744E+000  -5.39221939E-002    8996.41  <-- SCF
      5  -1.95970323E+003  7.61647033E+000   1.11383058E-003    9180.08  <-- SCF
      6  -1.95971357E+003  7.64072442E+000   5.74418573E-004    9358.70  <-- SCF
      7  -1.95971480E+003  7.64568804E+000   6.85156924E-005    9533.92  <-- SCF
      8  -1.95971514E+003  7.64960627E+000   1.88754260E-005    9695.97  <-- SCF
      9  -1.95971515E+003  7.65020704E+000   7.40417242E-007    9808.06  <-- SCF
     10  -1.95971516E+003  7.65038804E+000   8.28609426E-008    9918.09  <-- SCF
     11  -1.95971516E+003  7.65033687E+000  -3.77059668E-009   10039.44  <-- SCF
------------------------------------------------------------------------ <-- SCF
 
 2*Integrated Spin Density   =    0.108308E-06
 2*Integrated |Spin Density| =    0.245107E-05
 
Final energy, E             =  -1959.703235126     eV
Final free energy (E-TS)    =  -1959.715155635     eV
(energies not corrected for finite basis set)
 
NB est. 0K energy (E-0.5TS) =  -1959.709195381     eV
 
 
 ******************************** Forces *********************************
 *                                                                       *
 *                      Cartesian components (eV/A)                      *
 * --------------------------------------------------------------------- *
 *              x                    y                    z              *
 *                                                                       *
 * H    1     -0.01724             -0.00001              0.70426         *
 * H    2     -0.01908              0.00013              0.69597         *
 * H    3      0.11260             -0.00022             -0.23733         *
 * H    4      0.20353              0.00022             -0.24099         *
 * H    5      0.20190              0.00015             -0.16843         *
 * H    6      0.10457              0.00002             -0.17951         *
 * C    1     -0.01009             -0.00330             -0.32601         *
 * C    2     -0.05914             -0.00078             -0.36000         *
 * C    3     -0.04491             -0.00369              0.19115         *
 * C    4     -0.09724             -0.00002              0.15676         *
 * C    5     -0.03799             -0.00045              0.24610         *
 * C    6      0.00739             -0.00393              0.26704         *
 * C    7     -0.07048              0.00219             -0.55095         *
 * C    8     -0.04968              0.00297             -0.49568         *
 * C    9     -0.03324              0.00143              0.06024         *
 * C   10     -0.00929              0.00200              0.11143         *
 * C   11     -0.09876              0.00367              0.09224         *
 * C   12     -0.08286             -0.00036              0.03372         *
 *                                                                       *
 *************************************************************************
 
 ***************** Stress Tensor *****************
 *                                               *
 *          Cartesian components (GPa)           *
 * --------------------------------------------- *
 *             x             y             z     *
 *                                               *
 *  x     -0.515329      0.003544     -0.337919  *
 *  y      0.003544     -0.393803      0.007526  *
 *  z     -0.337919      0.007526    -13.042602  *
 *                                               *
 *  Pressure:    4.6506                          *
 *                                               *
 *************************************************
  
 +------------+-------------+-------------+-----------------+ <-- min BFGS
 |    Step    |   lambda    |   F.delta   |    enthalpy     | <-- min BFGS
 +------------+-------------+-------------+-----------------+ <-- min BFGS
 |  previous  |    0.000000 |    0.011595 |    -1959.494219 | <-- min BFGS
 | trial step |    1.000000 |    0.006378 |    -1959.714853 | <-- min BFGS
 +------------+-------------+-------------+-----------------+ <-- min BFGS
  
 BFGS: finished iteration   3  with enthalpy= -1.95971485E+003 eV
  
 +-----------+-----------------+-----------------+------------+-----+ <-- BFGS
 | Parameter |      value      |    tolerance    |    units   | OK? | <-- BFGS
 +-----------+-----------------+-----------------+------------+-----+ <-- BFGS
 |  dE/ion   |   1.225748E-002 |   5.000000E-006 |         eV | No  | <-- BFGS
 |  |F|max   |   7.044698E-001 |   1.000000E-002 |       eV/A | No  | <-- BFGS
 |  |dR|max  |   1.224125E-002 |   5.000000E-004 |          A | No  | <-- BFGS
 |   Smax    |   1.304260E+001 |   2.000000E-002 |        GPa | No  | <-- BFGS
 +-----------+-----------------+-----------------+------------+-----+ <-- BFGS
  

================================================================================
 Starting BFGS iteration          4 ...
================================================================================
  
 +------------+-------------+-------------+-----------------+ <-- min BFGS
 |    Step    |   lambda    |   F.delta   |    enthalpy     | <-- min BFGS
 +------------+-------------+-------------+-----------------+ <-- min BFGS
 |  previous  |    0.000000 |    0.010840 |    -1959.714853 | <-- min BFGS
 +------------+-------------+-------------+-----------------+ <-- min BFGS
  

--------------------------------------------------------------------------------
 BFGS: starting iteration         4 with trial guess (lambda=  1.000000)
--------------------------------------------------------------------------------
 
                           -------------------------------
                                      Unit Cell
                           -------------------------------
        Real Lattice(A)              Reciprocal Lattice(1/A)
   4.3296725  -0.0000314   0.0033326        1.4511924   0.0000105  -0.0008059
  -0.0000181   2.5000655  -0.0000185        0.0000182   2.5132083   0.0000125
   0.0051714  -0.0000464   9.3116919       -0.0005194   0.0000050   0.6747633
 
                       Lattice parameters(A)       Cell Angles
                    a =    4.329674          alpha =   90.000710
                    b =    2.500066          beta  =   89.924079
                    c =    9.311693          gamma =   90.000831
 
                Current cell volume =  100.794038 A**3
 
                           -------------------------------
                                     Cell Contents
                           -------------------------------
 
            xxxxxxxxxxxxxxxxxxxxxxxxxxxxxxxxxxxxxxxxxxxxxxxxxxxxxxxxxxxx
            x  Element    Atom        Fractional coordinates of atoms  x
            x            Number           u          v          w      x
            x----------------------------------------------------------x
            x   H          1         -0.002015   0.000435   0.088189   x
            x   H          2          0.498072   0.500441   0.088309   x
            x   H          3          0.326992   0.000444   0.745330   x
            x   H          4          0.823377   0.500436   0.745436   x
            x   H          5          0.157265   0.500431   0.412261   x
            x   H          6          0.661019   0.000459   0.412108   x
            x   C          1         -0.003275   0.000458   0.928619   x
            x   C          2          0.496718   0.500422   0.929022   x
            x   C          3          0.329079   0.000470   0.599120   x
            x   C          4          0.828869   0.500465   0.599396   x
            x   C          5          0.163111   0.500441   0.267325   x
            x   C          6          0.663285   0.000485   0.267418   x
            x   C          7         -0.003610   0.000480   0.231145   x
            x   C          8          0.496356   0.500488   0.231528   x
            x   C          9          0.330045   0.000455   0.903665   x
            x   C         10          0.829903   0.500456   0.903646   x
            x   C         11          0.162098   0.500473   0.568980   x
            x   C         12          0.662444   0.000473   0.568850   x
            xxxxxxxxxxxxxxxxxxxxxxxxxxxxxxxxxxxxxxxxxxxxxxxxxxxxxxxxxxxx
 
 
------------------------------------------------------------------------ <-- SCF
SCF loop      Energy           Fermi           Energy gain       Timer   <-- SCF
                               energy          per atom          (sec)   <-- SCF
------------------------------------------------------------------------ <-- SCF
Initial  -1.86579149E+003  6.30037034E+000                     10277.97  <-- SCF
      1  -1.96529567E+003  6.16628949E+000   5.52800996E+000   10408.98  <-- SCF
      2  -1.96532693E+003  6.16483824E+000   1.73665334E-003   10549.30  <-- SCF
      3  -1.96080527E+003  6.74667344E+000  -2.51203086E-001   10696.70  <-- SCF
      4  -1.95987981E+003  7.19876090E+000  -5.14145612E-002   10843.36  <-- SCF
      5  -1.95989275E+003  7.26920153E+000   7.19015675E-004   11001.23  <-- SCF
      6  -1.95990453E+003  7.29744612E+000   6.54446343E-004   11153.09  <-- SCF
      7  -1.95990637E+003  7.30353499E+000   1.02179314E-004   11305.27  <-- SCF
      8  -1.95990679E+003  7.30761789E+000   2.34414349E-005   11453.80  <-- SCF
      9  -1.95990682E+003  7.30859914E+000   1.26240633E-006   11582.56  <-- SCF
     10  -1.95990682E+003  7.30882263E+000   9.44790611E-008   11711.86  <-- SCF
     11  -1.95990682E+003  7.30870198E+000   1.80265044E-008   11845.97  <-- SCF
------------------------------------------------------------------------ <-- SCF
 
 2*Integrated Spin Density   =    0.420480E-07
 2*Integrated |Spin Density| =    0.107522E-05
 
Final energy, E             =  -1959.895707612     eV
Final free energy (E-TS)    =  -1959.906819403     eV
(energies not corrected for finite basis set)
 
NB est. 0K energy (E-0.5TS) =  -1959.901263508     eV
 
 
 ******************************** Forces *********************************
 *                                                                       *
 *                      Cartesian components (eV/A)                      *
 * --------------------------------------------------------------------- *
 *              x                    y                    z              *
 *                                                                       *
 * H    1     -0.01381             -0.00008              1.30089         *
 * H    2     -0.01463              0.00012              1.27573         *
 * H    3      0.08711             -0.00025             -0.61229         *
 * H    4      0.15511              0.00012             -0.62403         *
 * H    5      0.15823              0.00008             -0.59060         *
 * H    6      0.08416             -0.00021             -0.58452         *
 * C    1     -0.05405              0.00130             -0.46430         *
 * C    2     -0.06005              0.00128             -0.47828         *
 * C    3     -0.10471              0.00172              0.53346         *
 * C    4     -0.10218             -0.00059              0.51405         *
 * C    5     -0.09670              0.00271              0.48212         *
 * C    6     -0.09318              0.00255              0.46410         *
 * C    7      0.01101              0.00115             -0.76647         *
 * C    8      0.04364             -0.00295             -0.77636         *
 * C    9      0.01708             -0.00125              0.10093         *
 * C   10      0.03078             -0.00300              0.12619         *
 * C   11     -0.00364             -0.00285              0.06093         *
 * C   12     -0.04420              0.00016              0.03844         *
 *                                                                       *
 *************************************************************************
 
 ***************** Stress Tensor *****************
 *                                               *
 *          Cartesian components (GPa)           *
 * --------------------------------------------- *
 *             x             y             z     *
 *                                               *
 *  x      1.131415     -0.009551     -0.225412  *
 *  y     -0.009551      1.443605     -0.006785  *
 *  z     -0.225412     -0.006785     -0.117577  *
 *                                               *
 *  Pressure:   -0.8191                          *
 *                                               *
 *************************************************
  
 +------------+-------------+-------------+-----------------+ <-- min BFGS
 |    Step    |   lambda    |   F.delta   |    enthalpy     | <-- min BFGS
 +------------+-------------+-------------+-----------------+ <-- min BFGS
 |  previous  |    0.000000 |    0.010840 |    -1959.714853 | <-- min BFGS
 | trial step |    1.000000 |    0.005267 |    -1959.905485 | <-- min BFGS
 +------------+-------------+-------------+-----------------+ <-- min BFGS
  
 BFGS: finished iteration   4  with enthalpy= -1.95990548E+003 eV
  
 +-----------+-----------------+-----------------+------------+-----+ <-- BFGS
 | Parameter |      value      |    tolerance    |    units   | OK? | <-- BFGS
 +-----------+-----------------+-----------------+------------+-----+ <-- BFGS
 |  dE/ion   |   1.059064E-002 |   5.000000E-006 |         eV | No  | <-- BFGS
 |  |F|max   |   1.300963E+000 |   1.000000E-002 |       eV/A | No  | <-- BFGS
 |  |dR|max  |   2.649534E-002 |   5.000000E-004 |          A | No  | <-- BFGS
 |   Smax    |   1.443605E+000 |   2.000000E-002 |        GPa | No  | <-- BFGS
 +-----------+-----------------+-----------------+------------+-----+ <-- BFGS
  

================================================================================
 Starting BFGS iteration          5 ...
================================================================================
 
Writing model to C2H_sw.check                                                                                                                                                                                                                                                    
  
 +------------+-------------+-------------+-----------------+ <-- min BFGS
 |    Step    |   lambda    |   F.delta   |    enthalpy     | <-- min BFGS
 +------------+-------------+-------------+-----------------+ <-- min BFGS
 |  previous  |    0.000000 |    0.014860 |    -1959.905485 | <-- min BFGS
 +------------+-------------+-------------+-----------------+ <-- min BFGS
  

--------------------------------------------------------------------------------
 BFGS: starting iteration         5 with trial guess (lambda=  0.714451)
--------------------------------------------------------------------------------
 
                           -------------------------------
                                      Unit Cell
                           -------------------------------
        Real Lattice(A)              Reciprocal Lattice(1/A)
   4.3319524  -0.0000112   0.0073936        1.4504311   0.0000037  -0.0017923
  -0.0000065   2.5008465  -0.0000273        0.0000065   2.5124234   0.0000187
   0.0118330  -0.0000714   9.5761966       -0.0011198   0.0000072   0.6561267
 
                       Lattice parameters(A)       Cell Angles
                    a =    4.331959          alpha =   90.001052
                    b =    2.500847          beta  =   89.831412
                    c =    9.576204          gamma =   90.000298
 
                Current cell volume =  103.743967 A**3
 
                           -------------------------------
                                     Cell Contents
                           -------------------------------
 
            xxxxxxxxxxxxxxxxxxxxxxxxxxxxxxxxxxxxxxxxxxxxxxxxxxxxxxxxxxxx
            x  Element    Atom        Fractional coordinates of atoms  x
            x            Number           u          v          w      x
            x----------------------------------------------------------x
            x   H          1         -0.002149   0.000430   0.093825   x
            x   H          2          0.497910   0.500439   0.093892   x
            x   H          3          0.328227   0.000435   0.742989   x
            x   H          4          0.825589   0.500435   0.743073   x
            x   H          5          0.159456   0.500430   0.410437   x
            x   H          6          0.662169   0.000453   0.410225   x
            x   C          1         -0.003672   0.000454   0.925193   x
            x   C          2          0.496241   0.500416   0.925567   x
            x   C          3          0.328138   0.000473   0.600026   x
            x   C          4          0.827882   0.500472   0.600203   x
            x   C          5          0.162658   0.500445   0.268686   x
            x   C          6          0.662867   0.000486   0.268836   x
            x   C          7         -0.004179   0.000506   0.227936   x
            x   C          8          0.496049   0.500489   0.228533   x
            x   C          9          0.329783   0.000458   0.905098   x
            x   C         10          0.829845   0.500450   0.905297   x
            x   C         11          0.161270   0.500482   0.570477   x
            x   C         12          0.661650   0.000457   0.570056   x
            xxxxxxxxxxxxxxxxxxxxxxxxxxxxxxxxxxxxxxxxxxxxxxxxxxxxxxxxxxxx
 
 
------------------------------------------------------------------------ <-- SCF
SCF loop      Energy           Fermi           Energy gain       Timer   <-- SCF
                               energy          per atom          (sec)   <-- SCF
------------------------------------------------------------------------ <-- SCF
Initial  -1.86973685E+003  6.06865571E+000                     12119.03  <-- SCF
      1  -1.96572719E+003  5.90759808E+000   5.33279660E+000   12264.17  <-- SCF
      2  -1.96577157E+003  5.90544292E+000   2.46551294E-003   12423.94  <-- SCF
      3  -1.96105806E+003  6.44159562E+000  -2.61861676E-001   12606.81  <-- SCF
      4  -1.96016337E+003  6.84282750E+000  -4.97050484E-002   12774.31  <-- SCF
      5  -1.96016292E+003  6.92768027E+000  -2.45497301E-005   12933.06  <-- SCF
      6  -1.96017503E+003  6.96494604E+000   6.72744715E-004   13084.91  <-- SCF
      7  -1.96017737E+003  6.97107810E+000   1.30070966E-004   13235.17  <-- SCF
      8  -1.96017777E+003  6.97439882E+000   2.22615520E-005   13372.70  <-- SCF
      9  -1.96017780E+003  6.97575275E+000   1.40180500E-006   13479.92  <-- SCF
     10  -1.96017780E+003  6.97591463E+000   6.12096262E-008   13584.12  <-- SCF
     11  -1.96017780E+003  6.97579640E+000   1.68832777E-008   13687.97  <-- SCF
------------------------------------------------------------------------ <-- SCF
 
 2*Integrated Spin Density   =    0.619336E-05
 2*Integrated |Spin Density| =    0.199422E-04
 
Final energy, E             =  -1960.169195896     eV
Final free energy (E-TS)    =  -1960.177801594     eV
(energies not corrected for finite basis set)
 
NB est. 0K energy (E-0.5TS) =  -1960.173498745     eV
 
 
 ******************************** Forces *********************************
 *                                                                       *
 *                      Cartesian components (eV/A)                      *
 * --------------------------------------------------------------------- *
 *              x                    y                    z              *
 *                                                                       *
 * H    1     -0.00391              0.00026              2.11984         *
 * H    2      0.00084              0.00024              2.09804         *
 * H    3      0.04354              0.00005             -1.29182         *
 * H    4      0.08292              0.00021             -1.31987         *
 * H    5      0.08988              0.00023             -1.24182         *
 * H    6      0.04583             -0.00004             -1.20638         *
 * C    1     -0.04081              0.00114             -0.82523         *
 * C    2     -0.03146              0.00228             -0.80787         *
 * C    3     -0.14575              0.00520              0.85413         *
 * C    4     -0.06828             -0.00184              0.86261         *
 * C    5     -0.11745              0.00320              0.54955         *
 * C    6     -0.09814              0.00231              0.50748         *
 * C    7      0.12981             -0.00401             -0.67432         *
 * C    8      0.06169             -0.00400             -0.72606         *
 * C    9      0.03012             -0.00186              0.37852         *
 * C   10      0.01031             -0.00208              0.37713         *
 * C   11      0.03871             -0.00384              0.15125         *
 * C   12     -0.02785              0.00256              0.19482         *
 *                                                                       *
 *************************************************************************
 
 ***************** Stress Tensor *****************
 *                                               *
 *          Cartesian components (GPa)           *
 * --------------------------------------------- *
 *             x             y             z     *
 *                                               *
 *  x      2.314233     -0.005609     -0.012252  *
 *  y     -0.005609      2.464976     -0.006512  *
 *  z     -0.012252     -0.006512     10.335233  *
 *                                               *
 *  Pressure:   -5.0381                          *
 *                                               *
 *************************************************
  
 +------------+-------------+-------------+-----------------+ <-- min BFGS
 |    Step    |   lambda    |   F.delta   |    enthalpy     | <-- min BFGS
 +------------+-------------+-------------+-----------------+ <-- min BFGS
 |  previous  |    0.000000 |    0.014860 |    -1959.905485 | <-- min BFGS
 | trial step |    0.714451 |    0.014647 |    -1960.176992 | <-- min BFGS
 +------------+-------------+-------------+-----------------+ <-- min BFGS
  
 Warning in geom_xvec_to_mdl - large cell change detected
                             - consider your initial cell

--------------------------------------------------------------------------------
 BFGS: improving iteration         5 with line minimization (lambda= 49.758959)
--------------------------------------------------------------------------------
 
                           -------------------------------
                                      Unit Cell
                           -------------------------------
        Real Lattice(A)              Reciprocal Lattice(1/A)
   4.4884591   0.0013704   0.2861640        1.4013650  -0.0004403  -0.0237050
   0.0007919   2.5544596  -0.0006283       -0.0007619   2.4596929   0.0001715
   0.4691291  -0.0017886  27.7335090       -0.0144598   0.0000603   0.2268003
 
                       Lattice parameters(A)       Cell Angles
                    a =    4.497572          alpha =   90.017484
                    b =    2.554460          beta  =   85.382917
                    c =   27.737477          gamma =   89.965712
 
                Current cell volume =  317.638008 A**3
 
                           -------------------------------
                                     Cell Contents
                           -------------------------------
 
            xxxxxxxxxxxxxxxxxxxxxxxxxxxxxxxxxxxxxxxxxxxxxxxxxxxxxxxxxxxx
            x  Element    Atom        Fractional coordinates of atoms  x
            x            Number           u          v          w      x
            x----------------------------------------------------------x
            x   H          1         -0.011338   0.000112   0.480681   x
            x   H          2          0.486822   0.500342   0.477170   x
            x   H          3          0.412965  -0.000197   0.582263   x
            x   H          4          0.977411   0.500386   0.580865   x
            x   H          5          0.309840   0.500352   0.285235   x
            x   H          6          0.741100   0.000088   0.280925   x
            x   C          1         -0.030948   0.000159   0.690010   x
            x   C          2          0.463499   0.500044   0.688405   x
            x   C          3          0.263577   0.000653   0.662157   x
            x   C          4          0.760126   0.500947   0.655582   x
            x   C          5          0.131564   0.500770   0.362068   x
            x   C          6          0.634132   0.000596   0.366185   x
            x   C          7         -0.043212   0.002328   0.007597   x
            x   C          8          0.474938   0.500559   0.022950   x
            x   C          9          0.311747   0.000672   1.003484   x
            x   C         10          0.825877   0.499982   1.018625   x
            x   C         11          0.104446   0.501070   0.673288   x
            x   C         12          0.607190  -0.000652   0.652859   x
            xxxxxxxxxxxxxxxxxxxxxxxxxxxxxxxxxxxxxxxxxxxxxxxxxxxxxxxxxxxx
 
 
Error in allocating coeffs in wave_allocate_wv
