 +-------------------------------------------------+
 |                                                 |
 |      CCC   AA    SSS  TTTTT  EEEEE  PPPP        |
 |     C     A  A  S       T    E      P   P       |
 |     C     AAAA   SS     T    EEE    PPPP        |
 |     C     A  A     S    T    E      P           |
 |      CCC  A  A  SSS     T    EEEEE  P           |
 |                                                 |
 +-------------------------------------------------+
 |                                                 |
 | Welcome to Materials Studio CASTEP version 3.2  |
 | Ab Initio Total Energy Program                  |
 |                                                 |
 | Authors:                                        |
 | M. Segall, M. Probert, C. Pickard, P. Hasnip    |
 | S. Clark, K. Refson, M. Payne                   |
 |                                                 |
 | Contributors:                                   |
 | P. Lindan, P. Haynes, J. White, V. Milman       |
 | N. Govind, M. Gibson, P. Tulip, V. Cocula       |
 | B. Montanari, D. Quigley                        |
 |                                                 |
 | Copyright (c) 2000,2001,2002,2003,2004          |
 |                                                 |
 | Please cite                                     |
 |                                                 |
 |    "First-principles simulation: ideas,         |
 |    illustrations and the CASTEP code",          |
 |                                                 |
 | J. Phys.: Cond. Matt. 14(11) pp.2717-2743 (2002)|
 |                                                 |
 | M. D. Segall, P. J. D. Lindan, M. J. Probert,   |
 | C. J. Pickard, P. J. Hasnip, S. J. Clark,       |
 | M. C. Payne                                     |
 |                                                 |
 |       in all publications arising from          |
 |              your use of CASTEP                 |
 |                                                 |
 +-------------------------------------------------+
 
License checkout of MS_castep successful
Number of licenses checked out     1
 
 
 Pseudo atomic calculation performed for H 1s1
 
 Converged in 17 iterations to a total energy of -12.460019 eV
 
 
 Pseudo atomic calculation performed for C 2s2 2p2
 
 Converged in 21 iterations to a total energy of -146.419565 eV
 
Calculation parallelised over    1 nodes.
K-points are distributed over    1 groups, each containing    1 nodes.

 ************************************ Title ************************************
 CASTEP calculation from Materials Studio

 ***************************** General Parameters ******************************
  
 output verbosity                               : normal  (1)
 write checkpoint data to                       : benzene_cell.check
 type of calculation                            : geometry optimization
 stress calculation                             : off
 density difference calculation                 : off
 unlimited duration calculation
 timing information                             : on
  
 output         length unit                     : A
 output           mass unit                     : amu
 output           time unit                     : ps
 output         charge unit                     : e
 output         energy unit                     : eV
 output          force unit                     : eV/A
 output       velocity unit                     : A/ps
 output       pressure unit                     : GPa
 output     inv_length unit                     : 1/A
 output      frequency unit                     : cm-1
 output force constant unit                     : eV/A**2
 output         volume unit                     : A**3
  
 wavefunctions paging                           : none
 random number generator seed                   : randomised (95837734)
 data distribution                              : optimal for this architecture
 optimization strategy                          : balance speed and memory

 *********************** Exchange-Correlation Parameters ***********************
  
 using functional                               : Perdew Burke Ernzerhof

 ************************* Pseudopotential Parameters **************************
  
 pseudopotential representation                 : reciprocal space
 <beta|phi> representation                      : reciprocal space

 **************************** Basis Set Parameters *****************************
  
 plane wave basis set cut-off                   :   310.0000   eV
 size of standard grid                          :     1.7500
 size of fine grid                              :    15.7855   1/A
 finite basis set correction                    : none

 **************************** Electronic Parameters ****************************
  
 number of  electrons                           :         30
 net charge of system                           :          0
 net spin   of system                           :          0
 number of  up  spins                           :         15
 number of down spins                           :         15
 treating system as non-spin-polarized
 number of bands                                :         19

 ********************* Electronic Minimization Parameters **********************
  
 Method: Treating system as metallic with density mixing treatment of electrons,
         and number of  SD  steps               :          1
         and number of  CG  steps               :          4
  
 total energy / atom convergence tol.           : 0.5000E-06   eV
 eigen-energy convergence tolerance             : 0.3158E-06   eV
 convergence tolerance window                   :          3   cycles
 max. number of SCF cycles                      :        100
 number of fixed-spin iterations                :         10
 smearing scheme                                : Gaussian
 smearing width                                 : 0.1000       eV
 Fermi energy convergence tolerance             : 0.3158E-07   eV

 ************************** Density Mixing Parameters **************************
  
 density-mixing scheme                          : Pulay
 max. length of mixing history                  :         20
 charge density mixing amplitude                : 0.5000    
 cut-off energy for mixing                      :  310.0       eV
 charge density mixing g-vector                 :  1.500       1/A

 ********************** Geometry Optimization Parameters ***********************
  
 optimization method                            : BFGS
 variable cell method                           : fixed basis quality
 max. number of steps                           :        100
 estimated bulk modulus                         :  500.0       GPa
 estimated <frequency>                          :  1668.       cm-1
 total energy convergence tolerance             : 0.5000E-05   eV/atom
        max ionic |force| tolerance             : 0.1000E-01   eV/A
 max ionic |displacement| tolerance             : 0.5000E-03   A
   max |stress component| tolerance             : 0.2000E-01   GPa
 convergence tolerance window                   :          2   steps
 backup results every                           :          5   steps

 *******************************************************************************
  
 
                           -------------------------------
                                      Unit Cell
                           -------------------------------
        Real Lattice(A)                      Reciprocal Lattice(1/A)
  10.0000000   0.0000000   0.0000000        0.6283185   0.0000000   0.0000000
   0.0000000  10.0000000   0.0000000        0.0000000   0.6283185   0.0000000
   0.0000000   0.0000000  10.0000000        0.0000000   0.0000000   0.6283185
 
                       Lattice parameters(A)       Cell Angles
                    a =   10.000000          alpha =   90.000000
                    b =   10.000000          beta  =   90.000000
                    c =   10.000000          gamma =   90.000000
 
                       Current cell volume = 1000.000000       A**3
 
                           -------------------------------
                                     Cell Contents
                           -------------------------------
                         Total number of ions in cell =   12
                      Total number of species in cell =    2
                        Max number of any one species =    6
 
            xxxxxxxxxxxxxxxxxxxxxxxxxxxxxxxxxxxxxxxxxxxxxxxxxxxxxxxxxxxx
            x  Element    Atom        Fractional coordinates of atoms  x
            x            Number           u          v          w      x
            x----------------------------------------------------------x
            x   H          1          0.284289   0.533164   0.489553   x
            x   H          2          0.408553   0.317932   0.489553   x
            x   H          3          0.657081   0.317932   0.489553   x
            x   H          4          0.781344   0.533164   0.489553   x
            x   H          5          0.657081   0.748395   0.489553   x
            x   H          6          0.408553   0.748395   0.489553   x
            x   C          1          0.393968   0.533164   0.489553   x
            x   C          2          0.463392   0.412917   0.489553   x
            x   C          3          0.602241   0.412917   0.489553   x
            x   C          4          0.671665   0.533164   0.489553   x
            x   C          5          0.602241   0.653410   0.489553   x
            x   C          6          0.463392   0.653410   0.489553   x
            xxxxxxxxxxxxxxxxxxxxxxxxxxxxxxxxxxxxxxxxxxxxxxxxxxxxxxxxxxxx
 
 
                         No user defined ionic velocities
 
                           -------------------------------
                                   Details of Species
                           -------------------------------
 
                               Mass of species in AMU
                                    H      1.0080000
                                    C     12.0109997
 
                          Electric Quadrupole Moment (Barn)
                                    H      0.0028600 Isotope  2
                                    C      1.0000000 No Isotope Defined
 
                          Files used for pseudopotentials:
                                    H H_00.usp
                                    C C_00.usp
 
                           -------------------------------
                              k-Points For BZ Sampling
                           -------------------------------
                         Number of kpoints used =          14
 
             +++++++++++++++++++++++++++++++++++++++++++++++++++++++
             +  Number       Fractional coordinates        Weight  +
             +-----------------------------------------------------+
             +     1   0.333333   0.333333   0.333333   0.0740741  +
             +     2   0.333333   0.333333   0.000000   0.0740741  +
             +     3   0.333333   0.333333  -0.333333   0.0740741  +
             +     4   0.333333   0.000000   0.333333   0.0740741  +
             +     5   0.333333   0.000000   0.000000   0.0740741  +
             +     6   0.333333   0.000000  -0.333333   0.0740741  +
             +     7   0.333333  -0.333333   0.333333   0.0740741  +
             +     8   0.333333  -0.333333   0.000000   0.0740741  +
             +     9   0.333333  -0.333333  -0.333333   0.0740741  +
             +    10   0.000000   0.333333   0.333333   0.0740741  +
             +    11   0.000000   0.333333   0.000000   0.0740741  +
             +    12   0.000000   0.333333  -0.333333   0.0740741  +
             +    13   0.000000   0.000000   0.333333   0.0740741  +
             +    14   0.000000   0.000000   0.000000   0.0370370  +
             +++++++++++++++++++++++++++++++++++++++++++++++++++++++
 
                           -------------------------------
                               Symmetry and Constraints
                           -------------------------------
 
         There are no symmetry operations specified or generated for this cell
 
                        Centre of mass is NOT constrained
       There are no ionic constraints specified or generated for this cell
 
                         Number of cell constraints= 6
                         Cell constraints are:  0 0 0 0 0 0
 
                         External pressure/stress (GPa)
                          0.00000   0.00000   0.00000
                                    0.00000   0.00000
                                              0.00000
------------------------------------------------------------------------ <-- SCF
SCF loop      Energy           Fermi           Energy gain       Timer   <-- SCF
                               energy          per atom          (sec)   <-- SCF
------------------------------------------------------------------------ <-- SCF
Initial  -4.44251025E+001  5.42709761E+001                        24.75  <-- SCF
      1  -6.85550903E+002  2.01784238E+000   5.34271500E+001      86.97  <-- SCF
      2  -1.01806214E+003 -8.15222700E+000   2.77092701E+001     137.06  <-- SCF
      3  -1.03518434E+003 -9.09230282E+000   1.42684983E+000     211.52  <-- SCF
      4  -1.03662351E+003 -9.34651775E+000   1.19930690E-001     281.25  <-- SCF
      5  -1.03127531E+003 -6.67514175E+000  -4.45683450E-001     346.53  <-- SCF
      6  -1.03135257E+003 -6.80309279E+000   6.43853038E-003     412.59  <-- SCF
      7  -1.03129445E+003 -6.50946587E+000  -4.84323126E-003     480.19  <-- SCF
      8  -1.03114463E+003 -6.05970350E+000  -1.24849667E-002     544.42  <-- SCF
      9  -1.03109596E+003 -5.84701738E+000  -4.05636066E-003     611.05  <-- SCF
     10  -1.03110325E+003 -5.55485682E+000   6.07826328E-004     674.38  <-- SCF
     11  -1.03112310E+003 -5.47197471E+000   1.65440631E-003     742.36  <-- SCF
     12  -1.03114901E+003 -5.48679247E+000   2.15914671E-003     806.67  <-- SCF
     13  -1.03115763E+003 -5.47006340E+000   7.17896801E-004     872.47  <-- SCF
     14  -1.03116056E+003 -5.46224100E+000   2.44326297E-004     934.97  <-- SCF
     15  -1.03116235E+003 -5.44959644E+000   1.49050402E-004     995.22  <-- SCF
     16  -1.03116289E+003 -5.44833177E+000   4.51284286E-005    1047.22  <-- SCF
     17  -1.03116315E+003 -5.44863539E+000   2.17004811E-005    1098.30  <-- SCF
     18  -1.03116323E+003 -5.44851549E+000   6.60777481E-006    1149.70  <-- SCF
     19  -1.03116326E+003 -5.44875051E+000   2.81726500E-006    1199.28  <-- SCF
     20  -1.03116327E+003 -5.44866489E+000   3.76070454E-007    1248.55  <-- SCF
     21  -1.03116327E+003 -5.44881524E+000   1.76873121E-007    1297.20  <-- SCF
     22  -1.03116327E+003 -5.44870794E+000   8.68189584E-008    1345.34  <-- SCF
------------------------------------------------------------------------ <-- SCF
 
Final energy, E             =  -1031.163270275     eV
Final free energy (E-TS)    =  -1031.163270279     eV
(energies not corrected for finite basis set)
 
NB est. 0K energy (E-0.5TS) =  -1031.163270277     eV
 
 
 ******************************** Forces *********************************
 *                                                                       *
 *                      Cartesian components (eV/A)                      *
 * --------------------------------------------------------------------- *
 *              x                    y                    z              *
 *                                                                       *
 * H    1      0.40269             -0.00111             -0.01770         *
 * H    2      0.15056              0.33282             -0.01579         *
 * H    3     -0.20426              0.33346             -0.01770         *
 * H    4     -0.41509             -0.00344             -0.01594         *
 * H    5     -0.20387             -0.38284             -0.01691         *
 * H    6      0.15082             -0.38303             -0.01650         *
 * C    1      0.00341             -0.12047              0.01593         *
 * C    2     -0.03939              0.02911              0.01435         *
 * C    3      0.01547              0.03526              0.02038         *
 * C    4      0.16352             -0.12184              0.01584         *
 * C    5      0.01786              0.14399              0.02028         *
 * C    6     -0.04172              0.13809              0.01377         *
 *                                                                       *
 *************************************************************************
 BFGS: finished iteration   0  with enthalpy= -1.03116327E+003 eV
  
 +-----------+-----------------+-----------------+------------+-----+ <-- BFGS
 | Parameter |      value      |    tolerance    |    units   | OK? | <-- BFGS
 +-----------+-----------------+-----------------+------------+-----+ <-- BFGS
 |  dE/ion   |   0.000000E+000 |   5.000000E-006 |         eV | No  | <-- BFGS
 |  |F|max   |   4.340717E-001 |   1.000000E-002 |       eV/A | No  | <-- BFGS
 |  |dR|max  |   0.000000E+000 |   5.000000E-004 |          A | Yes | <-- BFGS
 +-----------+-----------------+-----------------+------------+-----+ <-- BFGS
  

================================================================================
 Starting BFGS iteration          1 ...
================================================================================
  
 +------------+-------------+-------------+-----------------+ <-- min BFGS
 |    Step    |   lambda    |   F.delta   |    enthalpy     | <-- min BFGS
 +------------+-------------+-------------+-----------------+ <-- min BFGS
 |  previous  |    0.000000 |    0.000598 |    -1031.163270 | <-- min BFGS
 +------------+-------------+-------------+-----------------+ <-- min BFGS
  

--------------------------------------------------------------------------------
 BFGS: starting iteration         1 with trial guess (lambda=  1.000000)
--------------------------------------------------------------------------------
 
                           -------------------------------
                                     Cell Contents
                           -------------------------------
 
            xxxxxxxxxxxxxxxxxxxxxxxxxxxxxxxxxxxxxxxxxxxxxxxxxxxxxxxxxxxx
            x  Element    Atom        Fractional coordinates of atoms  x
            x            Number           u          v          w      x
            x----------------------------------------------------------x
            x   H          1          0.284894   0.533162   0.489527   x
            x   H          2          0.408779   0.318432   0.489530   x
            x   H          3          0.656774   0.318433   0.489527   x
            x   H          4          0.780721   0.533159   0.489529   x
            x   H          5          0.656774   0.747820   0.489528   x
            x   H          6          0.408779   0.747820   0.489529   x
            x   C          1          0.393973   0.532983   0.489577   x
            x   C          2          0.463333   0.412961   0.489575   x
            x   C          3          0.602264   0.412970   0.489584   x
            x   C          4          0.671911   0.532981   0.489577   x
            x   C          5          0.602268   0.653626   0.489584   x
            x   C          6          0.463330   0.653618   0.489574   x
            xxxxxxxxxxxxxxxxxxxxxxxxxxxxxxxxxxxxxxxxxxxxxxxxxxxxxxxxxxxx
 
 
------------------------------------------------------------------------ <-- SCF
SCF loop      Energy           Fermi           Energy gain       Timer   <-- SCF
                               energy          per atom          (sec)   <-- SCF
------------------------------------------------------------------------ <-- SCF
Initial  -1.03112974E+003 -5.48630051E+000                      1411.55  <-- SCF
      1  -1.03118075E+003 -5.48671937E+000   4.25064523E-003    1456.34  <-- SCF
      2  -1.03118094E+003 -5.48672035E+000   1.64632263E-005    1506.75  <-- SCF
      3  -1.03117295E+003 -5.47035281E+000  -6.65694225E-004    1570.75  <-- SCF
      4  -1.03117360E+003 -5.45757340E+000   5.40963183E-005    1637.95  <-- SCF
      5  -1.03117369E+003 -5.45423546E+000   7.25148218E-006    1691.00  <-- SCF
      6  -1.03117367E+003 -5.44988500E+000  -2.11215293E-006    1741.39  <-- SCF
      7  -1.03117369E+003 -5.44586291E+000   2.23945926E-006    1790.55  <-- SCF
      8  -1.03117373E+003 -5.44340374E+000   3.36793277E-006    1839.92  <-- SCF
      9  -1.03117378E+003 -5.44260183E+000   3.93282463E-006    1890.33  <-- SCF
     10  -1.03117382E+003 -5.44220871E+000   3.51936722E-006    1941.61  <-- SCF
     11  -1.03117386E+003 -5.44185923E+000   3.36994369E-006    1992.20  <-- SCF
     12  -1.03117388E+003 -5.44185312E+000   1.53795578E-006    2041.84  <-- SCF
     13  -1.03117389E+003 -5.44193563E+000   8.77129407E-007    2090.20  <-- SCF
     14  -1.03117389E+003 -5.44187709E+000   1.75756694E-007    2140.08  <-- SCF
     15  -1.03117390E+003 -5.44191343E+000   2.32251227E-007    2188.39  <-- SCF
------------------------------------------------------------------------ <-- SCF
 
Final energy, E             =  -1031.173896718     eV
Final free energy (E-TS)    =  -1031.173896722     eV
(energies not corrected for finite basis set)
 
NB est. 0K energy (E-0.5TS) =  -1031.173896720     eV
 
 
 ******************************** Forces *********************************
 *                                                                       *
 *                      Cartesian components (eV/A)                      *
 * --------------------------------------------------------------------- *
 *              x                    y                    z              *
 *                                                                       *
 * H    1      0.21120             -0.01143             -0.01688         *
 * H    2      0.06867              0.18342             -0.01547         *
 * H    3     -0.12149              0.17738             -0.01652         *
 * H    4     -0.13326             -0.01356             -0.01505         *
 * H    5     -0.06989             -0.14395             -0.01585         *
 * H    6      0.01950             -0.15526             -0.01553         *
 * C    1      0.19449              0.03853              0.01465         *
 * C    2      0.08537              0.13349              0.01436         *
 * C    3     -0.06120              0.16032              0.01793         *
 * C    4     -0.21756              0.04162              0.01628         *
 * C    5     -0.09966             -0.21924              0.01785         *
 * C    6      0.12384             -0.19133              0.01421         *
 *                                                                       *
 *************************************************************************
  
 +------------+-------------+-------------+-----------------+ <-- min BFGS
 |    Step    |   lambda    |   F.delta   |    enthalpy     | <-- min BFGS
 +------------+-------------+-------------+-----------------+ <-- min BFGS
 |  previous  |    0.000000 |    0.000598 |    -1031.163270 | <-- min BFGS
 | trial step |    1.000000 |    0.000180 |    -1031.173897 | <-- min BFGS
 +------------+-------------+-------------+-----------------+ <-- min BFGS
  
 BFGS: finished iteration   1  with enthalpy= -1.03117390E+003 eV
  
 +-----------+-----------------+-----------------+------------+-----+ <-- BFGS
 | Parameter |      value      |    tolerance    |    units   | OK? | <-- BFGS
 +-----------+-----------------+-----------------+------------+-----+ <-- BFGS
 |  dE/ion   |   8.855370E-004 |   5.000000E-006 |         eV | No  | <-- BFGS
 |  |F|max   |   2.414906E-001 |   1.000000E-002 |       eV/A | No  | <-- BFGS
 |  |dR|max  |   6.518918E-003 |   5.000000E-004 |          A | No  | <-- BFGS
 +-----------+-----------------+-----------------+------------+-----+ <-- BFGS
  

================================================================================
 Starting BFGS iteration          2 ...
================================================================================
  
 +------------+-------------+-------------+-----------------+ <-- min BFGS
 |    Step    |   lambda    |   F.delta   |    enthalpy     | <-- min BFGS
 +------------+-------------+-------------+-----------------+ <-- min BFGS
 |  previous  |    0.000000 |    0.000479 |    -1031.173897 | <-- min BFGS
 +------------+-------------+-------------+-----------------+ <-- min BFGS
  

--------------------------------------------------------------------------------
 BFGS: starting iteration         2 with trial guess (lambda=  1.000000)
--------------------------------------------------------------------------------
 
                           -------------------------------
                                     Cell Contents
                           -------------------------------
 
            xxxxxxxxxxxxxxxxxxxxxxxxxxxxxxxxxxxxxxxxxxxxxxxxxxxxxxxxxxxx
            x  Element    Atom        Fractional coordinates of atoms  x
            x            Number           u          v          w      x
            x----------------------------------------------------------x
            x   H          1          0.285753   0.533136   0.489473   x
            x   H          2          0.409078   0.319162   0.489481   x
            x   H          3          0.656307   0.319150   0.489473   x
            x   H          4          0.780017   0.533126   0.489481   x
            x   H          5          0.656419   0.747125   0.489477   x
            x   H          6          0.408973   0.747100   0.489479   x
            x   C          1          0.394395   0.532944   0.489625   x
            x   C          2          0.463477   0.413277   0.489620   x
            x   C          3          0.602148   0.413350   0.489643   x
            x   C          4          0.671608   0.532947   0.489628   x
            x   C          5          0.602072   0.653300   0.489643   x
            x   C          6          0.463554   0.653345   0.489618   x
            xxxxxxxxxxxxxxxxxxxxxxxxxxxxxxxxxxxxxxxxxxxxxxxxxxxxxxxxxxxx
 
 
------------------------------------------------------------------------ <-- SCF
SCF loop      Energy           Fermi           Energy gain       Timer   <-- SCF
                               energy          per atom          (sec)   <-- SCF
------------------------------------------------------------------------ <-- SCF
Initial  -1.03098002E+003 -5.70317092E+000                      2254.64  <-- SCF
      1  -1.03122780E+003 -5.70577581E+000   2.06480141E-002    2298.88  <-- SCF
      2  -1.03122849E+003 -5.70578637E+000   5.73398896E-005    2349.52  <-- SCF
      3  -1.03118762E+003 -5.58645497E+000  -3.40528274E-003    2412.56  <-- SCF
      4  -1.03118247E+003 -5.51473936E+000  -4.29198912E-004    2479.95  <-- SCF
      5  -1.03118149E+003 -5.49175675E+000  -8.19701408E-005    2546.94  <-- SCF
      6  -1.03118113E+003 -5.46886548E+000  -3.02573290E-005    2608.42  <-- SCF
      7  -1.03118158E+003 -5.46349955E+000   3.79213657E-005    2668.00  <-- SCF
      8  -1.03118201E+003 -5.45228375E+000   3.58816828E-005    2726.83  <-- SCF
      9  -1.03118241E+003 -5.45037124E+000   3.34544918E-005    2780.64  <-- SCF
     10  -1.03118271E+003 -5.45036529E+000   2.44624628E-005    2833.83  <-- SCF
     11  -1.03118294E+003 -5.44934357E+000   1.97707755E-005    2884.86  <-- SCF
     12  -1.03118305E+003 -5.44895855E+000   8.96623854E-006    2936.39  <-- SCF
     13  -1.03118309E+003 -5.44965774E+000   2.92729387E-006    2986.81  <-- SCF
     14  -1.03118310E+003 -5.44963753E+000   1.45145646E-006    3036.73  <-- SCF
     15  -1.03118311E+003 -5.44957571E+000   2.36545014E-007    3085.41  <-- SCF
     16  -1.03118311E+003 -5.44947717E+000   2.62765811E-007    3134.20  <-- SCF
------------------------------------------------------------------------ <-- SCF
 
Final energy, E             =  -1031.183110289     eV
Final free energy (E-TS)    =  -1031.183110293     eV
(energies not corrected for finite basis set)
 
NB est. 0K energy (E-0.5TS) =  -1031.183110291     eV
 
 
 ******************************** Forces *********************************
 *                                                                       *
 *                      Cartesian components (eV/A)                      *
 * --------------------------------------------------------------------- *
 *              x                    y                    z              *
 *                                                                       *
 * H    1      0.06166             -0.01141             -0.01508         *
 * H    2     -0.00017              0.05751             -0.01445         *
 * H    3     -0.04405              0.04632             -0.01448         *
 * H    4      0.00676             -0.01267             -0.01329         *
 * H    5     -0.00612             -0.02257             -0.01365         *
 * H    6     -0.03432             -0.04026             -0.01368         *
 * C    1      0.14535              0.06995              0.01301         *
 * C    2      0.11928              0.09956              0.01464         *
 * C    3     -0.09276              0.09566              0.01420         *
 * C    4     -0.18877              0.07303              0.01521         *
 * C    5     -0.04782             -0.17682              0.01419         *
 * C    6      0.08095             -0.17829              0.01337         *
 *                                                                       *
 *************************************************************************
  
 +------------+-------------+-------------+-----------------+ <-- min BFGS
 |    Step    |   lambda    |   F.delta   |    enthalpy     | <-- min BFGS
 +------------+-------------+-------------+-----------------+ <-- min BFGS
 |  previous  |    0.000000 |    0.000479 |    -1031.173897 | <-- min BFGS
 | trial step |    1.000000 |    0.000197 |    -1031.183110 | <-- min BFGS
 +------------+-------------+-------------+-----------------+ <-- min BFGS
  

--------------------------------------------------------------------------------
 BFGS: improving iteration         2 with line minimization (lambda=  1.699255)
--------------------------------------------------------------------------------
 
                           -------------------------------
                                     Cell Contents
                           -------------------------------
 
            xxxxxxxxxxxxxxxxxxxxxxxxxxxxxxxxxxxxxxxxxxxxxxxxxxxxxxxxxxxx
            x  Element    Atom        Fractional coordinates of atoms  x
            x            Number           u          v          w      x
            x----------------------------------------------------------x
            x   H          1          0.286354   0.533118   0.489435   x
            x   H          2          0.409287   0.319672   0.489446   x
            x   H          3          0.655980   0.319652   0.489436   x
            x   H          4          0.779524   0.533103   0.489447   x
            x   H          5          0.656170   0.746639   0.489441   x
            x   H          6          0.409109   0.746597   0.489444   x
            x   C          1          0.394689   0.532917   0.489658   x
            x   C          2          0.463578   0.413498   0.489652   x
            x   C          3          0.602067   0.413616   0.489684   x
            x   C          4          0.671396   0.532924   0.489664   x
            x   C          5          0.601934   0.653072   0.489684   x
            x   C          6          0.463711   0.653155   0.489650   x
            xxxxxxxxxxxxxxxxxxxxxxxxxxxxxxxxxxxxxxxxxxxxxxxxxxxxxxxxxxxx
 
 
------------------------------------------------------------------------ <-- SCF
SCF loop      Energy           Fermi           Energy gain       Timer   <-- SCF
                               energy          per atom          (sec)   <-- SCF
------------------------------------------------------------------------ <-- SCF
Initial  -1.03105094E+003 -5.63310370E+000                      3200.45  <-- SCF
      1  -1.03120693E+003 -5.63438530E+000   1.29995819E-002    3244.58  <-- SCF
      2  -1.03120727E+003 -5.63439058E+000   2.77967725E-005    3295.25  <-- SCF
      3  -1.03118681E+003 -5.55071466E+000  -1.70439411E-003    3358.30  <-- SCF
      4  -1.03118450E+003 -5.50063259E+000  -1.92953757E-004    3425.97  <-- SCF
      5  -1.03118399E+003 -5.48449416E+000  -4.21695855E-005    3491.11  <-- SCF
      6  -1.03118380E+003 -5.46868208E+000  -1.62489422E-005    3552.80  <-- SCF
      7  -1.03118405E+003 -5.46464550E+000   2.08910848E-005    3611.33  <-- SCF
      8  -1.03118430E+003 -5.45699754E+000   2.09360924E-005    3668.41  <-- SCF
      9  -1.03118455E+003 -5.45521849E+000   2.05655261E-005    3719.67  <-- SCF
     10  -1.03118473E+003 -5.45549111E+000   1.51894098E-005    3771.78  <-- SCF
     11  -1.03118486E+003 -5.45493553E+000   1.06606509E-005    3822.89  <-- SCF
     12  -1.03118493E+003 -5.45452622E+000   5.84946010E-006    3874.28  <-- SCF
     13  -1.03118495E+003 -5.45485993E+000   1.70647165E-006    3923.91  <-- SCF
     14  -1.03118496E+003 -5.45508587E+000   1.00529912E-006    3973.61  <-- SCF
     15  -1.03118496E+003 -5.45494895E+000   1.33386721E-007    4022.48  <-- SCF
     16  -1.03118496E+003 -5.45487774E+000   1.44014057E-007    4070.53  <-- SCF
------------------------------------------------------------------------ <-- SCF
 
Final energy, E             =  -1031.184961342     eV
Final free energy (E-TS)    =  -1031.184961346     eV
(energies not corrected for finite basis set)
 
NB est. 0K energy (E-0.5TS) =  -1031.184961344     eV
 
 
 ******************************** Forces *********************************
 *                                                                       *
 *                      Cartesian components (eV/A)                      *
 * --------------------------------------------------------------------- *
 *              x                    y                    z              *
 *                                                                       *
 * H    1     -0.04569             -0.01096             -0.01378         *
 * H    2     -0.04820             -0.03113             -0.01392         *
 * H    3      0.01131             -0.04625             -0.01316         *
 * H    4      0.10652             -0.01155             -0.01234         *
 * H    5      0.03906              0.06305             -0.01241         *
 * H    6     -0.07278              0.04117             -0.01258         *
 * C    1      0.11012              0.09344              0.01196         *
 * C    2      0.14447              0.07486              0.01494         *
 * C    3     -0.11590              0.04931              0.01179         *
 * C    4     -0.16885              0.09612              0.01471         *
 * C    5     -0.01042             -0.14815              0.01186         *
 * C    6      0.05036             -0.16990              0.01293         *
 *                                                                       *
 *************************************************************************
  
 +------------+-------------+-------------+-----------------+ <-- min BFGS
 |    Step    |   lambda    |   F.delta   |    enthalpy     | <-- min BFGS
 +------------+-------------+-------------+-----------------+ <-- min BFGS
 |  previous  |    0.000000 |    0.000479 |    -1031.173897 | <-- min BFGS
 | trial step |    1.000000 |    0.000197 |    -1031.183110 | <-- min BFGS
 |  line step |    1.699255 |   -0.000003 |    -1031.184961 | <-- min BFGS
 +------------+-------------+-------------+-----------------+ <-- min BFGS
  
 BFGS: finished iteration   2  with enthalpy= -1.03118496E+003 eV
  
 +-----------+-----------------+-----------------+------------+-----+ <-- BFGS
 | Parameter |      value      |    tolerance    |    units   | OK? | <-- BFGS
 +-----------+-----------------+-----------------+------------+-----+ <-- BFGS
 |  dE/ion   |   9.220520E-004 |   5.000000E-006 |         eV | No  | <-- BFGS
 |  |F|max   |   1.948477E-001 |   1.000000E-002 |       eV/A | No  | <-- BFGS
 |  |dR|max  |   1.464158E-002 |   5.000000E-004 |          A | No  | <-- BFGS
 +-----------+-----------------+-----------------+------------+-----+ <-- BFGS
  

================================================================================
 Starting BFGS iteration          3 ...
================================================================================
  
 +------------+-------------+-------------+-----------------+ <-- min BFGS
 |    Step    |   lambda    |   F.delta   |    enthalpy     | <-- min BFGS
 +------------+-------------+-------------+-----------------+ <-- min BFGS
 |  previous  |    0.000000 |    0.000068 |    -1031.184961 | <-- min BFGS
 +------------+-------------+-------------+-----------------+ <-- min BFGS
  

--------------------------------------------------------------------------------
 BFGS: starting iteration         3 with trial guess (lambda=  1.000000)
--------------------------------------------------------------------------------
 
                           -------------------------------
                                     Cell Contents
                           -------------------------------
 
            xxxxxxxxxxxxxxxxxxxxxxxxxxxxxxxxxxxxxxxxxxxxxxxxxxxxxxxxxxxx
            x  Element    Atom        Fractional coordinates of atoms  x
            x            Number           u          v          w      x
            x----------------------------------------------------------x
            x   H          1          0.286357   0.533104   0.489413   x
            x   H          2          0.409244   0.319682   0.489424   x
            x   H          3          0.655965   0.319641   0.489415   x
            x   H          4          0.779593   0.533088   0.489427   x
            x   H          5          0.656185   0.746655   0.489421   x
            x   H          6          0.409039   0.746582   0.489423   x
            x   C          1          0.394815   0.533015   0.489677   x
            x   C          2          0.463765   0.413591   0.489675   x
            x   C          3          0.601911   0.413667   0.489704   x
            x   C          4          0.671235   0.533025   0.489687   x
            x   C          5          0.601945   0.652937   0.489703   x
            x   C          6          0.463748   0.652980   0.489670   x
            xxxxxxxxxxxxxxxxxxxxxxxxxxxxxxxxxxxxxxxxxxxxxxxxxxxxxxxxxxxx
 
 
------------------------------------------------------------------------ <-- SCF
SCF loop      Energy           Fermi           Energy gain       Timer   <-- SCF
                               energy          per atom          (sec)   <-- SCF
------------------------------------------------------------------------ <-- SCF
Initial  -1.03114555E+003 -5.51363814E+000                      4136.81  <-- SCF
      1  -1.03119180E+003 -5.51407437E+000   3.85420864E-003    4180.97  <-- SCF
      2  -1.03119189E+003 -5.51407600E+000   7.61954359E-006    4231.39  <-- SCF
      3  -1.03118606E+003 -5.48708730E+000  -4.85476096E-004    4295.33  <-- SCF
      4  -1.03118587E+003 -5.47106254E+000  -1.62836396E-005    4362.72  <-- SCF
      5  -1.03118588E+003 -5.46886030E+000   9.14211266E-007    4414.80  <-- SCF
      6  -1.03118585E+003 -5.46579500E+000  -2.73014368E-006    4465.75  <-- SCF
      7  -1.03118585E+003 -5.46249057E+000  -4.00192742E-008    4514.30  <-- SCF
      8  -1.03118586E+003 -5.46158836E+000   1.24583322E-006    4562.89  <-- SCF
      9  -1.03118590E+003 -5.46056773E+000   3.56725326E-006    4613.62  <-- SCF
     10  -1.03118593E+003 -5.46015657E+000   2.15164684E-006    4663.30  <-- SCF
     11  -1.03118596E+003 -5.46004833E+000   2.31189502E-006    4714.41  <-- SCF
     12  -1.03118598E+003 -5.45994739E+000   1.83692494E-006    4764.22  <-- SCF
     13  -1.03118598E+003 -5.45989905E+000   4.65318127E-007    4814.06  <-- SCF
     14  -1.03118599E+003 -5.45999652E+000   4.79446264E-007    4862.45  <-- SCF
     15  -1.03118599E+003 -5.45997950E+000   1.34897965E-007    4910.88  <-- SCF
     16  -1.03118599E+003 -5.45999564E+000   5.88820969E-008    4959.02  <-- SCF
------------------------------------------------------------------------ <-- SCF
 
Final energy, E             =  -1031.185992348     eV
Final free energy (E-TS)    =  -1031.185992352     eV
(energies not corrected for finite basis set)
 
NB est. 0K energy (E-0.5TS) =  -1031.185992350     eV
 
 
 ******************************** Forces *********************************
 *                                                                       *
 *                      Cartesian components (eV/A)                      *
 * --------------------------------------------------------------------- *
 *              x                    y                    z              *
 *                                                                       *
 * H    1     -0.00426             -0.00862             -0.01290         *
 * H    2     -0.01485              0.01955             -0.01295         *
 * H    3     -0.01056             -0.01034             -0.01231         *
 * H    4      0.02799             -0.00956             -0.01131         *
 * H    5      0.01628              0.02368             -0.01160         *
 * H    6     -0.03814             -0.01152             -0.01169         *
 * C    1      0.01953              0.01804              0.01158         *
 * C    2     -0.00848             -0.00181              0.01365         *
 * C    3      0.02505              0.00569              0.01144         *
 * C    4     -0.02485              0.01736              0.01306         *
 * C    5     -0.00235             -0.02438              0.01134         *
 * C    6      0.01464             -0.01808              0.01168         *
 *                                                                       *
 *************************************************************************
  
 +------------+-------------+-------------+-----------------+ <-- min BFGS
 |    Step    |   lambda    |   F.delta   |    enthalpy     | <-- min BFGS
 +------------+-------------+-------------+-----------------+ <-- min BFGS
 |  previous  |    0.000000 |    0.000068 |    -1031.184961 | <-- min BFGS
 | trial step |    1.000000 |    0.000008 |    -1031.185992 | <-- min BFGS
 +------------+-------------+-------------+-----------------+ <-- min BFGS
  
 BFGS: finished iteration   3  with enthalpy= -1.03118599E+003 eV
  
 +-----------+-----------------+-----------------+------------+-----+ <-- BFGS
 | Parameter |      value      |    tolerance    |    units   | OK? | <-- BFGS
 +-----------+-----------------+-----------------+------------+-----+ <-- BFGS
 |  dE/ion   |   8.591716E-005 |   5.000000E-006 |         eV | No  | <-- BFGS
 |  |F|max   |   4.152225E-002 |   1.000000E-002 |       eV/A | No  | <-- BFGS
 |  |dR|max  |   2.098343E-003 |   5.000000E-004 |          A | No  | <-- BFGS
 +-----------+-----------------+-----------------+------------+-----+ <-- BFGS
  

================================================================================
 Starting BFGS iteration          4 ...
================================================================================
  
 +------------+-------------+-------------+-----------------+ <-- min BFGS
 |    Step    |   lambda    |   F.delta   |    enthalpy     | <-- min BFGS
 +------------+-------------+-------------+-----------------+ <-- min BFGS
 |  previous  |    0.000000 |    0.000006 |    -1031.185992 | <-- min BFGS
 +------------+-------------+-------------+-----------------+ <-- min BFGS
  

--------------------------------------------------------------------------------
 BFGS: starting iteration         4 with trial guess (lambda=  1.000000)
--------------------------------------------------------------------------------
 
                           -------------------------------
                                     Cell Contents
                           -------------------------------
 
            xxxxxxxxxxxxxxxxxxxxxxxxxxxxxxxxxxxxxxxxxxxxxxxxxxxxxxxxxxxx
            x  Element    Atom        Fractional coordinates of atoms  x
            x            Number           u          v          w      x
            x----------------------------------------------------------x
            x   H          1          0.286358   0.533089   0.489389   x
            x   H          2          0.409219   0.319722   0.489401   x
            x   H          3          0.655942   0.319629   0.489393   x
            x   H          4          0.779633   0.533071   0.489407   x
            x   H          5          0.656208   0.746686   0.489400   x
            x   H          6          0.408975   0.746552   0.489402   x
            x   C          1          0.394848   0.533045   0.489698   x
            x   C          2          0.463758   0.413590   0.489700   x
            x   C          3          0.601946   0.413675   0.489725   x
            x   C          4          0.671198   0.533054   0.489711   x
            x   C          5          0.601946   0.652902   0.489724   x
            x   C          6          0.463769   0.652951   0.489691   x
            xxxxxxxxxxxxxxxxxxxxxxxxxxxxxxxxxxxxxxxxxxxxxxxxxxxxxxxxxxxx
 
 
------------------------------------------------------------------------ <-- SCF
SCF loop      Energy           Fermi           Energy gain       Timer   <-- SCF
                               energy          per atom          (sec)   <-- SCF
------------------------------------------------------------------------ <-- SCF
Initial  -1.03118141E+003 -5.46696500E+000                      5025.23  <-- SCF
      1  -1.03118631E+003 -5.46698791E+000   4.08259305E-004    5070.91  <-- SCF
      2  -1.03118632E+003 -5.46698800E+000   2.91849068E-007    5100.12  <-- SCF
      3  -1.03118601E+003 -5.46387212E+000  -2.56781200E-005    5163.09  <-- SCF
      4  -1.03118607E+003 -5.46191301E+000   5.29965420E-006    5222.08  <-- SCF
      5  -1.03118608E+003 -5.46161685E+000   6.06832913E-007    5270.98  <-- SCF
      6  -1.03118608E+003 -5.46127973E+000  -3.43274647E-007    5320.28  <-- SCF
      7  -1.03118607E+003 -5.46101310E+000  -1.21322112E-007    5369.03  <-- SCF
------------------------------------------------------------------------ <-- SCF
 
Final energy, E             =  -1031.186073917     eV
Final free energy (E-TS)    =  -1031.186073921     eV
(energies not corrected for finite basis set)
 
NB est. 0K energy (E-0.5TS) =  -1031.186073919     eV
 
 
 ******************************** Forces *********************************
 *                                                                       *
 *                      Cartesian components (eV/A)                      *
 * --------------------------------------------------------------------- *
 *              x                    y                    z              *
 *                                                                       *
 * H    1      0.00661             -0.00565             -0.01216         *
 * H    2     -0.01784              0.01221             -0.01221         *
 * H    3     -0.00517             -0.01126             -0.01166         *
 * H    4      0.00230             -0.00645             -0.01051         *
 * H    5      0.00548              0.00315             -0.01086         *
 * H    6     -0.02713             -0.02162             -0.01095         *
 * C    1     -0.00387             -0.00950              0.01118         *
 * C    2      0.01434              0.00994              0.01230         *
 * C    3     -0.00967             -0.00044              0.01115         *
 * C    4      0.02785             -0.00742              0.01189         *
 * C    5      0.00432              0.02418              0.01089         *
 * C    6      0.00279              0.01288              0.01094         *
 *                                                                       *
 *************************************************************************
  
 +------------+-------------+-------------+-----------------+ <-- min BFGS
 |    Step    |   lambda    |   F.delta   |    enthalpy     | <-- min BFGS
 +------------+-------------+-------------+-----------------+ <-- min BFGS
 |  previous  |    0.000000 |    0.000006 |    -1031.185992 | <-- min BFGS
 | trial step |    1.000000 |    0.000001 |    -1031.186074 | <-- min BFGS
 +------------+-------------+-------------+-----------------+ <-- min BFGS
  
 BFGS: finished iteration   4  with enthalpy= -1.03118607E+003 eV
  
 +-----------+-----------------+-----------------+------------+-----+ <-- BFGS
 | Parameter |      value      |    tolerance    |    units   | OK? | <-- BFGS
 +-----------+-----------------+-----------------+------------+-----+ <-- BFGS
 |  dE/ion   |   6.797479E-006 |   5.000000E-006 |         eV | No  | <-- BFGS
 |  |F|max   |   3.637860E-002 |   1.000000E-002 |       eV/A | No  | <-- BFGS
 |  |dR|max  |   7.387184E-004 |   5.000000E-004 |          A | No  | <-- BFGS
 +-----------+-----------------+-----------------+------------+-----+ <-- BFGS
  

================================================================================
 Starting BFGS iteration          5 ...
================================================================================
 
Writing model to benzene_cell.check                                                                                                                                                                                                                                              
  
 +------------+-------------+-------------+-----------------+ <-- min BFGS
 |    Step    |   lambda    |   F.delta   |    enthalpy     | <-- min BFGS
 +------------+-------------+-------------+-----------------+ <-- min BFGS
 |  previous  |    0.000000 |    0.000005 |    -1031.186074 | <-- min BFGS
 +------------+-------------+-------------+-----------------+ <-- min BFGS
  

--------------------------------------------------------------------------------
 BFGS: starting iteration         5 with trial guess (lambda=  1.000000)
--------------------------------------------------------------------------------
 
                           -------------------------------
                                     Cell Contents
                           -------------------------------
 
            xxxxxxxxxxxxxxxxxxxxxxxxxxxxxxxxxxxxxxxxxxxxxxxxxxxxxxxxxxxx
            x  Element    Atom        Fractional coordinates of atoms  x
            x            Number           u          v          w      x
            x----------------------------------------------------------x
            x   H          1          0.286376   0.533064   0.489345   x
            x   H          2          0.409163   0.319783   0.489356   x
            x   H          3          0.655910   0.319600   0.489350   x
            x   H          4          0.779672   0.533043   0.489368   x
            x   H          5          0.656238   0.746717   0.489360   x
            x   H          6          0.408865   0.746482   0.489362   x
            x   C          1          0.394880   0.533057   0.489739   x
            x   C          2          0.463790   0.413617   0.489746   x
            x   C          3          0.601949   0.413688   0.489765   x
            x   C          4          0.671207   0.533070   0.489755   x
            x   C          5          0.601952   0.652906   0.489764   x
            x   C          6          0.463798   0.652939   0.489731   x
            xxxxxxxxxxxxxxxxxxxxxxxxxxxxxxxxxxxxxxxxxxxxxxxxxxxxxxxxxxxx
 
 
------------------------------------------------------------------------ <-- SCF
SCF loop      Energy           Fermi           Energy gain       Timer   <-- SCF
                               energy          per atom          (sec)   <-- SCF
------------------------------------------------------------------------ <-- SCF
Initial  -1.03118081E+003 -5.46642695E+000                      5435.97  <-- SCF
      1  -1.03118649E+003 -5.46646739E+000   4.73360050E-004    5480.61  <-- SCF
      2  -1.03118649E+003 -5.46646756E+000   3.72856744E-007    5513.03  <-- SCF
      3  -1.03118610E+003 -5.46390116E+000  -3.25246362E-005    5574.98  <-- SCF
      4  -1.03118616E+003 -5.46204393E+000   4.72327665E-006    5635.97  <-- SCF
      5  -1.03118615E+003 -5.46208638E+000  -1.28235923E-006    5685.55  <-- SCF
      6  -1.03118614E+003 -5.46182657E+000  -6.23055288E-007    5734.66  <-- SCF
      7  -1.03118615E+003 -5.46136894E+000   6.02905280E-007    5782.84  <-- SCF
      8  -1.03118615E+003 -5.46128176E+000   7.90620805E-007    5831.44  <-- SCF
      9  -1.03118618E+003 -5.46128257E+000   1.91323508E-006    5882.27  <-- SCF
     10  -1.03118619E+003 -5.46125134E+000   6.50310145E-007    5931.25  <-- SCF
     11  -1.03118619E+003 -5.46123006E+000   7.67944376E-007    5982.30  <-- SCF
     12  -1.03118620E+003 -5.46124644E+000   3.90530473E-007    6031.48  <-- SCF
     13  -1.03118620E+003 -5.46123606E+000   1.38247857E-007    6080.92  <-- SCF
     14  -1.03118620E+003 -5.46125888E+000   6.10119274E-008    6129.12  <-- SCF
------------------------------------------------------------------------ <-- SCF
 
Final energy, E             =  -1031.186201585     eV
Final free energy (E-TS)    =  -1031.186201588     eV
(energies not corrected for finite basis set)
 
NB est. 0K energy (E-0.5TS) =  -1031.186201587     eV
 
 
 ******************************** Forces *********************************
 *                                                                       *
 *                      Cartesian components (eV/A)                      *
 * --------------------------------------------------------------------- *
 *              x                    y                    z              *
 *                                                                       *
 * H    1      0.01131             -0.00340             -0.01052         *
 * H    2     -0.01113              0.01390             -0.01044         *
 * H    3     -0.00584             -0.00419             -0.01008         *
 * H    4     -0.00837             -0.00390             -0.00884         *
 * H    5     -0.00060             -0.00671             -0.00929         *
 * H    6     -0.01657             -0.02261             -0.00946         *
 * C    1     -0.01138             -0.01481              0.00983         *
 * C    2     -0.00167              0.00017              0.00992         *
 * C    3      0.00203             -0.00853              0.00999         *
 * C    4      0.03833             -0.01424              0.00980         *
 * C    5      0.01930              0.03828              0.00959         *
 * C    6     -0.01539              0.02604              0.00951         *
 *                                                                       *
 *************************************************************************
  
 +------------+-------------+-------------+-----------------+ <-- min BFGS
 |    Step    |   lambda    |   F.delta   |    enthalpy     | <-- min BFGS
 +------------+-------------+-------------+-----------------+ <-- min BFGS
 |  previous  |    0.000000 |    0.000005 |    -1031.186074 | <-- min BFGS
 | trial step |    1.000000 |    0.000003 |    -1031.186202 | <-- min BFGS
 +------------+-------------+-------------+-----------------+ <-- min BFGS
  

--------------------------------------------------------------------------------
 BFGS: improving iteration         5 with line minimization (lambda=  2.766491)
--------------------------------------------------------------------------------
 
                           -------------------------------
                                     Cell Contents
                           -------------------------------
 
            xxxxxxxxxxxxxxxxxxxxxxxxxxxxxxxxxxxxxxxxxxxxxxxxxxxxxxxxxxxx
            x  Element    Atom        Fractional coordinates of atoms  x
            x            Number           u          v          w      x
            x----------------------------------------------------------x
            x   H          1          0.286408   0.533021   0.489266   x
            x   H          2          0.409064   0.319892   0.489277   x
            x   H          3          0.655854   0.319549   0.489274   x
            x   H          4          0.779742   0.532994   0.489299   x
            x   H          5          0.656291   0.746771   0.489289   x
            x   H          6          0.408671   0.746358   0.489290   x
            x   C          1          0.394936   0.533079   0.489811   x
            x   C          2          0.463847   0.413664   0.489827   x
            x   C          3          0.601953   0.413712   0.489837   x
            x   C          4          0.671224   0.533097   0.489833   x
            x   C          5          0.601962   0.652913   0.489834   x
            x   C          6          0.463850   0.652916   0.489802   x
            xxxxxxxxxxxxxxxxxxxxxxxxxxxxxxxxxxxxxxxxxxxxxxxxxxxxxxxxxxxx
 
 
------------------------------------------------------------------------ <-- SCF
SCF loop      Energy           Fermi           Energy gain       Timer   <-- SCF
                               energy          per atom          (sec)   <-- SCF
------------------------------------------------------------------------ <-- SCF
Initial  -1.03117829E+003 -5.47105466E+000                      6195.45  <-- SCF
      1  -1.03118722E+003 -5.47118222E+000   7.44378753E-004    6239.75  <-- SCF
      2  -1.03118724E+003 -5.47118284E+000   1.45334178E-006    6286.22  <-- SCF
      3  -1.03118614E+003 -5.46655517E+000  -9.21584179E-005    6349.06  <-- SCF
      4  -1.03118623E+003 -5.46348991E+000   7.82320534E-006    6415.34  <-- SCF
      5  -1.03118619E+003 -5.46344654E+000  -3.04805298E-006    6467.72  <-- SCF
      6  -1.03118616E+003 -5.46301196E+000  -3.08710746E-006    6518.23  <-- SCF
      7  -1.03118617E+003 -5.46235803E+000   1.26323181E-006    6566.67  <-- SCF
      8  -1.03118619E+003 -5.46224793E+000   1.23508369E-006    6615.59  <-- SCF
      9  -1.03118623E+003 -5.46232453E+000   4.04846709E-006    6666.75  <-- SCF
     10  -1.03118625E+003 -5.46225182E+000   1.04043156E-006    6715.66  <-- SCF
     11  -1.03118627E+003 -5.46217083E+000   1.63145164E-006    6767.48  <-- SCF
     12  -1.03118627E+003 -5.46223716E+000   6.84216674E-007    6817.58  <-- SCF
     13  -1.03118628E+003 -5.46223515E+000   3.81091585E-007    6866.81  <-- SCF
     14  -1.03118628E+003 -5.46223876E+000   1.59504141E-007    6916.00  <-- SCF
     15  -1.03118628E+003 -5.46224679E+000   4.26034415E-008    6964.61  <-- SCF
------------------------------------------------------------------------ <-- SCF
 
Final energy, E             =  -1031.186281317     eV
Final free energy (E-TS)    =  -1031.186281321     eV
(energies not corrected for finite basis set)
 
NB est. 0K energy (E-0.5TS) =  -1031.186281319     eV
 
 
 ******************************** Forces *********************************
 *                                                                       *
 *                      Cartesian components (eV/A)                      *
 * --------------------------------------------------------------------- *
 *              x                    y                    z              *
 *                                                                       *
 * H    1      0.01990              0.00023             -0.00772         *
 * H    2      0.00048              0.01718             -0.00736         *
 * H    3     -0.00751              0.00810             -0.00733         *
 * H    4     -0.02754              0.00024             -0.00587         *
 * H    5     -0.01148             -0.02433             -0.00650         *
 * H    6      0.00178             -0.02496             -0.00672         *
 * C    1     -0.02551             -0.02480              0.00765         *
 * C    2     -0.02937             -0.01664              0.00552         *
 * C    3      0.02246             -0.02278              0.00797         *
 * C    4      0.05826             -0.02691              0.00611         *
 * C    5      0.04595              0.06437              0.00733         *
 * C    6     -0.04743              0.05031              0.00692         *
 *                                                                       *
 *************************************************************************
  
 +------------+-------------+-------------+-----------------+ <-- min BFGS
 |    Step    |   lambda    |   F.delta   |    enthalpy     | <-- min BFGS
 +------------+-------------+-------------+-----------------+ <-- min BFGS
 |  previous  |    0.000000 |    0.000005 |    -1031.186074 | <-- min BFGS
 | trial step |    1.000000 |    0.000003 |    -1031.186202 | <-- min BFGS
 |  line step |    2.766491 |    0.000000 |    -1031.186281 | <-- min BFGS
 +------------+-------------+-------------+-----------------+ <-- min BFGS
  
 BFGS: finished iteration   5  with enthalpy= -1.03118628E+003 eV
  
 +-----------+-----------------+-----------------+------------+-----+ <-- BFGS
 | Parameter |      value      |    tolerance    |    units   | OK? | <-- BFGS
 +-----------+-----------------+-----------------+------------+-----+ <-- BFGS
 |  dE/ion   |   1.728328E-005 |   5.000000E-006 |         eV | No  | <-- BFGS
 |  |F|max   |   7.942397E-002 |   1.000000E-002 |       eV/A | No  | <-- BFGS
 |  |dR|max  |   3.773289E-003 |   5.000000E-004 |          A | No  | <-- BFGS
 +-----------+-----------------+-----------------+------------+-----+ <-- BFGS
  

================================================================================
 Starting BFGS iteration          6 ...
================================================================================
  
 +------------+-------------+-------------+-----------------+ <-- min BFGS
 |    Step    |   lambda    |   F.delta   |    enthalpy     | <-- min BFGS
 +------------+-------------+-------------+-----------------+ <-- min BFGS
 |  previous  |    0.000000 |    0.000007 |    -1031.186281 | <-- min BFGS
 +------------+-------------+-------------+-----------------+ <-- min BFGS
  

--------------------------------------------------------------------------------
 BFGS: starting iteration         6 with trial guess (lambda=  1.000000)
--------------------------------------------------------------------------------
 
                           -------------------------------
                                     Cell Contents
                           -------------------------------
 
            xxxxxxxxxxxxxxxxxxxxxxxxxxxxxxxxxxxxxxxxxxxxxxxxxxxxxxxxxxxx
            x  Element    Atom        Fractional coordinates of atoms  x
            x            Number           u          v          w      x
            x----------------------------------------------------------x
            x   H          1          0.286438   0.532993   0.489206   x
            x   H          2          0.408999   0.319973   0.489218   x
            x   H          3          0.655813   0.319518   0.489218   x
            x   H          4          0.779773   0.532963   0.489249   x
            x   H          5          0.656319   0.746793   0.489237   x
            x   H          6          0.408543   0.746267   0.489237   x
            x   C          1          0.394956   0.533077   0.489865   x
            x   C          2          0.463844   0.413674   0.489885   x
            x   C          3          0.601991   0.413704   0.489892   x
            x   C          4          0.671272   0.533095   0.489890   x
            x   C          5          0.602026   0.652969   0.489888   x
            x   C          6          0.463827   0.652939   0.489856   x
            xxxxxxxxxxxxxxxxxxxxxxxxxxxxxxxxxxxxxxxxxxxxxxxxxxxxxxxxxxxx
 
 
------------------------------------------------------------------------ <-- SCF
SCF loop      Energy           Fermi           Energy gain       Timer   <-- SCF
                               energy          per atom          (sec)   <-- SCF
------------------------------------------------------------------------ <-- SCF
Initial  -1.03119232E+003 -5.44988602E+000                      7030.80  <-- SCF
      1  -1.03118710E+003 -5.44997063E+000  -4.35748387E-004    7075.50  <-- SCF
      2  -1.03118711E+003 -5.44997104E+000   9.73677082E-007    7116.03  <-- SCF
      3  -1.03118631E+003 -5.45586757E+000  -6.66432036E-005    7178.86  <-- SCF
      4  -1.03118638E+003 -5.45921793E+000   6.02004015E-006    7243.08  <-- SCF
      5  -1.03118637E+003 -5.45955548E+000  -1.01158628E-006    7294.69  <-- SCF
      6  -1.03118634E+003 -5.46018999E+000  -2.49972925E-006    7345.28  <-- SCF
      7  -1.03118635E+003 -5.46076210E+000   7.41508238E-007    7393.91  <-- SCF
      8  -1.03118636E+003 -5.46098638E+000   7.53093954E-007    7442.05  <-- SCF
      9  -1.03118639E+003 -5.46115774E+000   2.58659818E-006    7492.78  <-- SCF
     10  -1.03118639E+003 -5.46117631E+000   5.86892737E-007    7542.16  <-- SCF
     11  -1.03118641E+003 -5.46121306E+000   1.18585340E-006    7593.44  <-- SCF
     12  -1.03118641E+003 -5.46119418E+000   4.84033666E-007    7642.73  <-- SCF
     13  -1.03118642E+003 -5.46123284E+000   2.62187054E-007    7692.80  <-- SCF
     14  -1.03118642E+003 -5.46123186E+000   1.47406518E-007    7741.25  <-- SCF
------------------------------------------------------------------------ <-- SCF
 
Final energy, E             =  -1031.186418327     eV
Final free energy (E-TS)    =  -1031.186418331     eV
(energies not corrected for finite basis set)
 
NB est. 0K energy (E-0.5TS) =  -1031.186418329     eV
 
 
 ******************************** Forces *********************************
 *                                                                       *
 *                      Cartesian components (eV/A)                      *
 * --------------------------------------------------------------------- *
 *              x                    y                    z              *
 *                                                                       *
 * H    1      0.01631              0.00129             -0.00573         *
 * H    2      0.00037              0.00668             -0.00530         *
 * H    3     -0.00115              0.00464             -0.00554         *
 * H    4     -0.02178              0.00120             -0.00391         *
 * H    5     -0.00274             -0.01185             -0.00482         *
 * H    6      0.00160             -0.00820             -0.00486         *
 * C    1     -0.02378             -0.01785              0.00572         *
 * C    2     -0.00634             -0.01162              0.00310         *
 * C    3     -0.00118             -0.01480              0.00613         *
 * C    4      0.04398             -0.01716              0.00415         *
 * C    5      0.00329              0.03395              0.00570         *
 * C    6     -0.00858              0.03372              0.00535         *
 *                                                                       *
 *************************************************************************
  
 +------------+-------------+-------------+-----------------+ <-- min BFGS
 |    Step    |   lambda    |   F.delta   |    enthalpy     | <-- min BFGS
 +------------+-------------+-------------+-----------------+ <-- min BFGS
 |  previous  |    0.000000 |    0.000007 |    -1031.186281 | <-- min BFGS
 | trial step |    1.000000 |    0.000003 |    -1031.186418 | <-- min BFGS
 +------------+-------------+-------------+-----------------+ <-- min BFGS
  

--------------------------------------------------------------------------------
 BFGS: improving iteration         6 with line minimization (lambda=  1.799000)
--------------------------------------------------------------------------------
 
                           -------------------------------
                                     Cell Contents
                           -------------------------------
 
            xxxxxxxxxxxxxxxxxxxxxxxxxxxxxxxxxxxxxxxxxxxxxxxxxxxxxxxxxxxx
            x  Element    Atom        Fractional coordinates of atoms  x
            x            Number           u          v          w      x
            x----------------------------------------------------------x
            x   H          1          0.286463   0.532971   0.489159   x
            x   H          2          0.408947   0.320038   0.489171   x
            x   H          3          0.655781   0.319493   0.489172   x
            x   H          4          0.779798   0.532939   0.489208   x
            x   H          5          0.656342   0.746810   0.489195   x
            x   H          6          0.408440   0.746194   0.489195   x
            x   C          1          0.394972   0.533075   0.489909   x
            x   C          2          0.463841   0.413682   0.489931   x
            x   C          3          0.602021   0.413698   0.489936   x
            x   C          4          0.671311   0.533094   0.489936   x
            x   C          5          0.602078   0.653013   0.489930   x
            x   C          6          0.463808   0.652958   0.489899   x
            xxxxxxxxxxxxxxxxxxxxxxxxxxxxxxxxxxxxxxxxxxxxxxxxxxxxxxxxxxxx
 
 
------------------------------------------------------------------------ <-- SCF
SCF loop      Energy           Fermi           Energy gain       Timer   <-- SCF
                               energy          per atom          (sec)   <-- SCF
------------------------------------------------------------------------ <-- SCF
Initial  -1.03119142E+003 -5.45106144E+000                      7807.53  <-- SCF
      1  -1.03118688E+003 -5.45111558E+000  -3.77794807E-004    7852.95  <-- SCF
      2  -1.03118689E+003 -5.45111579E+000   5.61311891E-007    7887.66  <-- SCF
      3  -1.03118636E+003 -5.45591198E+000  -4.39159484E-005    7950.97  <-- SCF
      4  -1.03118643E+003 -5.45873813E+000   5.23301021E-006    8012.95  <-- SCF
      5  -1.03118642E+003 -5.45893367E+000  -6.11999814E-007    8063.91  <-- SCF
      6  -1.03118640E+003 -5.45939904E+000  -1.49345423E-006    8113.36  <-- SCF
      7  -1.03118640E+003 -5.45988024E+000   6.51520829E-008    8162.00  <-- SCF
      8  -1.03118641E+003 -5.46009828E+000   5.70575057E-007    8210.53  <-- SCF
      9  -1.03118643E+003 -5.46023773E+000   1.68656745E-006    8260.48  <-- SCF
     10  -1.03118644E+003 -5.46024446E+000   6.70134506E-007    8309.42  <-- SCF
     11  -1.03118644E+003 -5.46026023E+000   6.83992261E-007    8359.88  <-- SCF
     12  -1.03118645E+003 -5.46027487E+000   4.07507825E-007    8409.47  <-- SCF
     13  -1.03118645E+003 -5.46029661E+000   1.15275251E-007    8458.58  <-- SCF
     14  -1.03118645E+003 -5.46027694E+000   1.19534074E-007    8507.22  <-- SCF
------------------------------------------------------------------------ <-- SCF
 
Final energy, E             =  -1031.186451775     eV
Final free energy (E-TS)    =  -1031.186451778     eV
(energies not corrected for finite basis set)
 
NB est. 0K energy (E-0.5TS) =  -1031.186451777     eV
 
 
 ******************************** Forces *********************************
 *                                                                       *
 *                      Cartesian components (eV/A)                      *
 * --------------------------------------------------------------------- *
 *              x                    y                    z              *
 *                                                                       *
 * H    1      0.01347              0.00217             -0.00397         *
 * H    2      0.00032             -0.00187             -0.00359         *
 * H    3      0.00389              0.00194             -0.00391         *
 * H    4     -0.01716              0.00199             -0.00218         *
 * H    5      0.00430             -0.00182             -0.00336         *
 * H    6      0.00146              0.00529             -0.00332         *
 * C    1     -0.02243             -0.01228              0.00407         *
 * C    2      0.01212             -0.00770              0.00104         *
 * C    3     -0.02005             -0.00839              0.00452         *
 * C    4      0.03241             -0.00936              0.00243         *
 * C    5     -0.03082              0.00951              0.00428         *
 * C    6      0.02249              0.02052              0.00400         *
 *                                                                       *
 *************************************************************************
  
 +------------+-------------+-------------+-----------------+ <-- min BFGS
 |    Step    |   lambda    |   F.delta   |    enthalpy     | <-- min BFGS
 +------------+-------------+-------------+-----------------+ <-- min BFGS
 |  previous  |    0.000000 |    0.000007 |    -1031.186281 | <-- min BFGS
 | trial step |    1.000000 |    0.000003 |    -1031.186418 | <-- min BFGS
 |  line step |    1.799000 |    0.000000 |    -1031.186452 | <-- min BFGS
 +------------+-------------+-------------+-----------------+ <-- min BFGS
  
 BFGS: finished iteration   6  with enthalpy= -1.03118645E+003 eV
  
 +-----------+-----------------+-----------------+------------+-----+ <-- BFGS
 | Parameter |      value      |    tolerance    |    units   | OK? | <-- BFGS
 +-----------+-----------------+-----------------+------------+-----+ <-- BFGS
 |  dE/ion   |   1.420481E-005 |   5.000000E-006 |         eV | No  | <-- BFGS
 |  |F|max   |   3.382578E-002 |   1.000000E-002 |       eV/A | No  | <-- BFGS
 |  |dR|max  |   2.987951E-003 |   5.000000E-004 |          A | No  | <-- BFGS
 +-----------+-----------------+-----------------+------------+-----+ <-- BFGS
  

================================================================================
 Starting BFGS iteration          7 ...
================================================================================
  
 +------------+-------------+-------------+-----------------+ <-- min BFGS
 |    Step    |   lambda    |   F.delta   |    enthalpy     | <-- min BFGS
 +------------+-------------+-------------+-----------------+ <-- min BFGS
 |  previous  |    0.000000 |    0.000002 |    -1031.186452 | <-- min BFGS
 +------------+-------------+-------------+-----------------+ <-- min BFGS
  

--------------------------------------------------------------------------------
 BFGS: starting iteration         7 with trial guess (lambda=  1.000000)
--------------------------------------------------------------------------------
 
                           -------------------------------
                                     Cell Contents
                           -------------------------------
 
            xxxxxxxxxxxxxxxxxxxxxxxxxxxxxxxxxxxxxxxxxxxxxxxxxxxxxxxxxxxx
            x  Element    Atom        Fractional coordinates of atoms  x
            x            Number           u          v          w      x
            x----------------------------------------------------------x
            x   H          1          0.286486   0.532969   0.489141   x
            x   H          2          0.408936   0.320052   0.489153   x
            x   H          3          0.655778   0.319490   0.489155   x
            x   H          4          0.779784   0.532935   0.489195   x
            x   H          5          0.656356   0.746816   0.489179   x
            x   H          6          0.408415   0.746189   0.489179   x
            x   C          1          0.394947   0.533063   0.489926   x
            x   C          2          0.463848   0.413667   0.489944   x
            x   C          3          0.602011   0.413684   0.489954   x
            x   C          4          0.671356   0.533084   0.489951   x
            x   C          5          0.602048   0.653028   0.489948   x
            x   C          6          0.463835   0.652987   0.489916   x
            xxxxxxxxxxxxxxxxxxxxxxxxxxxxxxxxxxxxxxxxxxxxxxxxxxxxxxxxxxxx
 
 
------------------------------------------------------------------------ <-- SCF
SCF loop      Energy           Fermi           Energy gain       Timer   <-- SCF
                               energy          per atom          (sec)   <-- SCF
------------------------------------------------------------------------ <-- SCF
Initial  -1.03119038E+003 -5.45408823E+000                      8573.66  <-- SCF
      1  -1.03118662E+003 -5.45410419E+000  -3.12866768E-004    8619.80  <-- SCF
      2  -1.03118663E+003 -5.45410424E+000   1.78051097E-007    8647.30  <-- SCF
      3  -1.03118642E+003 -5.45712744E+000  -1.72501753E-005    8707.39  <-- SCF
      4  -1.03118646E+003 -5.45884337E+000   3.81511836E-006    8759.92  <-- SCF
      5  -1.03118647E+003 -5.45922757E+000   4.35557474E-007    8808.88  <-- SCF
      6  -1.03118647E+003 -5.45956223E+000  -2.76229151E-007    8857.64  <-- SCF
------------------------------------------------------------------------ <-- SCF
 
Final energy, E             =  -1031.186466648     eV
Final free energy (E-TS)    =  -1031.186466651     eV
(energies not corrected for finite basis set)
 
NB est. 0K energy (E-0.5TS) =  -1031.186466650     eV
 
 
 ******************************** Forces *********************************
 *                                                                       *
 *                      Cartesian components (eV/A)                      *
 * --------------------------------------------------------------------- *
 *              x                    y                    z              *
 *                                                                       *
 * H    1     -0.00205              0.00207             -0.00352         *
 * H    2     -0.00116             -0.00755             -0.00320         *
 * H    3      0.00384             -0.00098             -0.00339         *
 * H    4      0.00108              0.00221             -0.00183         *
 * H    5      0.00055             -0.00438             -0.00282         *
 * H    6      0.00292              0.00801             -0.00279         *
 * C    1      0.01364             -0.00117              0.00322         *
 * C    2     -0.00087              0.00623              0.00121         *
 * C    3     -0.00131              0.00419              0.00337         *
 * C    4     -0.01420             -0.00496              0.00254         *
 * C    5      0.00727             -0.00116              0.00346         *
 * C    6     -0.00971             -0.00250              0.00374         *
 *                                                                       *
 *************************************************************************
  
 +------------+-------------+-------------+-----------------+ <-- min BFGS
 |    Step    |   lambda    |   F.delta   |    enthalpy     | <-- min BFGS
 +------------+-------------+-------------+-----------------+ <-- min BFGS
 |  previous  |    0.000000 |    0.000002 |    -1031.186452 | <-- min BFGS
 | trial step |    1.000000 |    0.000000 |    -1031.186467 | <-- min BFGS
 +------------+-------------+-------------+-----------------+ <-- min BFGS
  
 BFGS: finished iteration   7  with enthalpy= -1.03118647E+003 eV
  
 +-----------+-----------------+-----------------+------------+-----+ <-- BFGS
 | Parameter |      value      |    tolerance    |    units   | OK? | <-- BFGS
 +-----------+-----------------+-----------------+------------+-----+ <-- BFGS
 |  dE/ion   |   1.239418E-006 |   5.000000E-006 |         eV | Yes | <-- BFGS
 |  |F|max   |   1.525253E-002 |   1.000000E-002 |       eV/A | No  | <-- BFGS
 |  |dR|max  |   4.834629E-004 |   5.000000E-004 |          A | Yes | <-- BFGS
 +-----------+-----------------+-----------------+------------+-----+ <-- BFGS
  

================================================================================
 Starting BFGS iteration          8 ...
================================================================================
  
 +------------+-------------+-------------+-----------------+ <-- min BFGS
 |    Step    |   lambda    |   F.delta   |    enthalpy     | <-- min BFGS
 +------------+-------------+-------------+-----------------+ <-- min BFGS
 |  previous  |    0.000000 |    0.000000 |    -1031.186467 | <-- min BFGS
 +------------+-------------+-------------+-----------------+ <-- min BFGS
  

--------------------------------------------------------------------------------
 BFGS: starting iteration         8 with trial guess (lambda=  1.000000)
--------------------------------------------------------------------------------
 
                           -------------------------------
                                     Cell Contents
                           -------------------------------
 
            xxxxxxxxxxxxxxxxxxxxxxxxxxxxxxxxxxxxxxxxxxxxxxxxxxxxxxxxxxxx
            x  Element    Atom        Fractional coordinates of atoms  x
            x            Number           u          v          w      x
            x----------------------------------------------------------x
            x   H          1          0.286486   0.532972   0.489137   x
            x   H          2          0.408936   0.320043   0.489149   x
            x   H          3          0.655783   0.319491   0.489151   x
            x   H          4          0.779782   0.532939   0.489193   x
            x   H          5          0.656357   0.746809   0.489175   x
            x   H          6          0.408421   0.746199   0.489175   x
            x   C          1          0.394960   0.533059   0.489930   x
            x   C          2          0.463848   0.413673   0.489945   x
            x   C          3          0.602006   0.413688   0.489958   x
            x   C          4          0.671344   0.533076   0.489954   x
            x   C          5          0.602051   0.653028   0.489952   x
            x   C          6          0.463827   0.652988   0.489920   x
            xxxxxxxxxxxxxxxxxxxxxxxxxxxxxxxxxxxxxxxxxxxxxxxxxxxxxxxxxxxx
 
 
------------------------------------------------------------------------ <-- SCF
SCF loop      Energy           Fermi           Energy gain       Timer   <-- SCF
                               energy          per atom          (sec)   <-- SCF
------------------------------------------------------------------------ <-- SCF
Initial  -1.03118816E+003 -5.46158808E+000                      8924.00  <-- SCF
      1  -1.03118648E+003 -5.46158910E+000  -1.40061440E-004    8965.47  <-- SCF
      2  -1.03118648E+003 -5.46158911E+000   3.45716800E-008    8992.84  <-- SCF
      3  -1.03118647E+003 -5.46073594E+000  -1.50940233E-006    9040.92  <-- SCF
      4  -1.03118647E+003 -5.46015790E+000   6.50789198E-007    9088.89  <-- SCF
      5  -1.03118647E+003 -5.46018805E+000   8.44126718E-008    9137.47  <-- SCF
      6  -1.03118648E+003 -5.46016532E+000   9.64465863E-008    9185.48  <-- SCF
------------------------------------------------------------------------ <-- SCF
 
Final energy, E             =  -1031.186475684     eV
Final free energy (E-TS)    =  -1031.186475688     eV
(energies not corrected for finite basis set)
 
NB est. 0K energy (E-0.5TS) =  -1031.186475686     eV
 
 
 ******************************** Forces *********************************
 *                                                                       *
 *                      Cartesian components (eV/A)                      *
 * --------------------------------------------------------------------- *
 *              x                    y                    z              *
 *                                                                       *
 * H    1      0.00228              0.00150             -0.00317         *
 * H    2      0.00088             -0.00310             -0.00296         *
 * H    3      0.00214              0.00147             -0.00304         *
 * H    4     -0.00206              0.00146             -0.00158         *
 * H    5      0.00202             -0.00245             -0.00256         *
 * H    6      0.00230              0.00669             -0.00247         *
 * C    1      0.00157              0.00273              0.00275         *
 * C    2     -0.00173             -0.00263              0.00145         *
 * C    3      0.00064             -0.00224              0.00267         *
 * C    4     -0.00647              0.00077              0.00259         *
 * C    5      0.00016             -0.00361              0.00302         *
 * C    6     -0.00172             -0.00060              0.00331         *
 *                                                                       *
 *************************************************************************
  
 +------------+-------------+-------------+-----------------+ <-- min BFGS
 |    Step    |   lambda    |   F.delta   |    enthalpy     | <-- min BFGS
 +------------+-------------+-------------+-----------------+ <-- min BFGS
 |  previous  |    0.000000 |    0.000000 |    -1031.186467 | <-- min BFGS
 | trial step |    1.000000 |    0.000000 |    -1031.186476 | <-- min BFGS
 +------------+-------------+-------------+-----------------+ <-- min BFGS
  
 BFGS: finished iteration   8  with enthalpy= -1.03118648E+003 eV
  
 +-----------+-----------------+-----------------+------------+-----+ <-- BFGS
 | Parameter |      value      |    tolerance    |    units   | OK? | <-- BFGS
 +-----------+-----------------+-----------------+------------+-----+ <-- BFGS
 |  dE/ion   |   7.530621E-007 |   5.000000E-006 |         eV | Yes | <-- BFGS
 |  |F|max   |   7.491486E-003 |   1.000000E-002 |       eV/A | Yes | <-- BFGS
 |  |dR|max  |   1.469853E-004 |   5.000000E-004 |          A | Yes | <-- BFGS
 +-----------+-----------------+-----------------+------------+-----+ <-- BFGS
  
 BFGS: Geometry optimization completed successfully.

================================================================================
 BFGS: Final Configuration:
================================================================================
 
                           -------------------------------
                                     Cell Contents
                           -------------------------------
 
            xxxxxxxxxxxxxxxxxxxxxxxxxxxxxxxxxxxxxxxxxxxxxxxxxxxxxxxxxxxx
            x  Element    Atom        Fractional coordinates of atoms  x
            x            Number           u          v          w      x
            x----------------------------------------------------------x
            x   H          1          0.286486   0.532972   0.489137   x
            x   H          2          0.408936   0.320043   0.489149   x
            x   H          3          0.655783   0.319491   0.489151   x
            x   H          4          0.779782   0.532939   0.489193   x
            x   H          5          0.656357   0.746809   0.489175   x
            x   H          6          0.408421   0.746199   0.489175   x
            x   C          1          0.394960   0.533059   0.489930   x
            x   C          2          0.463848   0.413673   0.489945   x
            x   C          3          0.602006   0.413688   0.489958   x
            x   C          4          0.671344   0.533076   0.489954   x
            x   C          5          0.602051   0.653028   0.489952   x
            x   C          6          0.463827   0.652988   0.489920   x
            xxxxxxxxxxxxxxxxxxxxxxxxxxxxxxxxxxxxxxxxxxxxxxxxxxxxxxxxxxxx
 
 
 BFGS: Final Enthalpy     = -1.03118648E+003 eV
 BFGS: Final <frequency>  =  1.61162688E+003 cm-1
 
 ******************************** Forces *********************************
 *                                                                       *
 *                      Cartesian components (eV/A)                      *
 * --------------------------------------------------------------------- *
 *              x                    y                    z              *
 *                                                                       *
 * H    1      0.00228              0.00150             -0.00317         *
 * H    2      0.00088             -0.00310             -0.00296         *
 * H    3      0.00214              0.00147             -0.00304         *
 * H    4     -0.00206              0.00146             -0.00158         *
 * H    5      0.00202             -0.00245             -0.00256         *
 * H    6      0.00230              0.00669             -0.00247         *
 * C    1      0.00157              0.00273              0.00275         *
 * C    2     -0.00173             -0.00263              0.00145         *
 * C    3      0.00064             -0.00224              0.00267         *
 * C    4     -0.00647              0.00077              0.00259         *
 * C    5      0.00016             -0.00361              0.00302         *
 * C    6     -0.00172             -0.00060              0.00331         *
 *                                                                       *
 *************************************************************************
 
Writing model to benzene_cell.check                                                                                                                                                                                                                                              
Initialisation time =      3.19
Calculation time    =   9225.94
Finalisation time   =      1.34
Total time          =   9230.47
