 +-------------------------------------------------+
 |                                                 |
 |      CCC   AA    SSS  TTTTT  EEEEE  PPPP        |
 |     C     A  A  S       T    E      P   P       |
 |     C     AAAA   SS     T    EEE    PPPP        |
 |     C     A  A     S    T    E      P           |
 |      CCC  A  A  SSS     T    EEEEE  P           |
 |                                                 |
 +-------------------------------------------------+
 |                                                 |
 | Welcome to Materials Studio CASTEP version 3.2  |
 | Ab Initio Total Energy Program                  |
 |                                                 |
 | Authors:                                        |
 | M. Segall, M. Probert, C. Pickard, P. Hasnip    |
 | S. Clark, K. Refson, M. Payne                   |
 |                                                 |
 | Contributors:                                   |
 | P. Lindan, P. Haynes, J. White, V. Milman       |
 | N. Govind, M. Gibson, P. Tulip, V. Cocula       |
 | B. Montanari, D. Quigley                        |
 |                                                 |
 | Copyright (c) 2000,2001,2002,2003,2004          |
 |                                                 |
 | Please cite                                     |
 |                                                 |
 |    "First-principles simulation: ideas,         |
 |    illustrations and the CASTEP code",          |
 |                                                 |
 | J. Phys.: Cond. Matt. 14(11) pp.2717-2743 (2002)|
 |                                                 |
 | M. D. Segall, P. J. D. Lindan, M. J. Probert,   |
 | C. J. Pickard, P. J. Hasnip, S. J. Clark,       |
 | M. C. Payne                                     |
 |                                                 |
 |       in all publications arising from          |
 |              your use of CASTEP                 |
 |                                                 |
 +-------------------------------------------------+
 
License checkout of MS_castep successful
Number of licenses checked out     1
 
 
 Pseudo atomic calculation performed for C 2s2 2p2
 
 Converged in 25 iterations to a total energy of -146.431846 eV
 
 
 Pseudo atomic calculation performed for F 2s2 2p5
 
 Converged in 28 iterations to a total energy of -659.044313 eV
 
Calculation parallelised over    1 nodes.
K-points are distributed over    1 groups, each containing    1 nodes.

 ************************************ Title ************************************
 CASTEP calculation from Materials Studio

 ***************************** General Parameters ******************************
  
 output verbosity                               : normal  (1)
 write checkpoint data to                       : CF-boat_sym_sz01x00.check
 type of calculation                            : geometry optimization
 stress calculation                             : on
 density difference calculation                 : off
 unlimited duration calculation
 timing information                             : on
  
 output         length unit                     : A
 output           mass unit                     : amu
 output           time unit                     : ps
 output         charge unit                     : e
 output         energy unit                     : eV
 output          force unit                     : eV/A
 output       velocity unit                     : A/ps
 output       pressure unit                     : GPa
 output     inv_length unit                     : 1/A
 output      frequency unit                     : cm-1
 output force constant unit                     : eV/A**2
 output         volume unit                     : A**3
  
 wavefunctions paging                           : none
 random number generator seed                   : randomised (115052032)
 data distribution                              : optimal for this architecture
 optimization strategy                          : balance speed and memory

 *********************** Exchange-Correlation Parameters ***********************
  
 using functional                               : Perdew Burke Ernzerhof

 ************************* Pseudopotential Parameters **************************
  
 pseudopotential representation                 : reciprocal space
 <beta|phi> representation                      : reciprocal space

 **************************** Basis Set Parameters *****************************
  
 plane wave basis set cut-off                   :   370.0000   eV
 size of standard grid                          :     1.7500
 size of fine grid                              :    17.2456   1/A
 finite basis set correction                    : automatic
 number of sample energies                      :          3
           sample  spacing                      :     5.0000   eV

 **************************** Electronic Parameters ****************************
  
 number of  electrons                           :         44
 net charge of system                           :          0
 net spin   of system                           :          0
 number of  up  spins                           :         22
 number of down spins                           :         22
 treating system as non-spin-polarized
 number of bands                                :         26

 ********************* Electronic Minimization Parameters **********************
  
 Method: Treating system as metallic with density mixing treatment of electrons,
         and number of  SD  steps               :          1
         and number of  CG  steps               :          4
  
 total energy / atom convergence tol.           : 0.5000E-06   eV
 eigen-energy convergence tolerance             : 0.1538E-06   eV
 convergence tolerance window                   :          3   cycles
 max. number of SCF cycles                      :        100
 number of fixed-spin iterations                :         10
 smearing scheme                                : Gaussian
 smearing width                                 : 0.1000       eV
 Fermi energy convergence tolerance             : 0.1538E-07   eV

 ************************** Density Mixing Parameters **************************
  
 density-mixing scheme                          : Pulay
 max. length of mixing history                  :         20
 charge density mixing amplitude                : 0.5000    
 cut-off energy for mixing                      :  370.0       eV
 charge density mixing g-vector                 :  1.500       1/A

 ********************** Geometry Optimization Parameters ***********************
  
 optimization method                            : BFGS
 variable cell method                           : fixed basis quality
 max. number of steps                           :        100
 estimated bulk modulus                         :  500.0       GPa
 estimated <frequency>                          :  1668.       cm-1
 total energy convergence tolerance             : 0.5000E-05   eV/atom
        max ionic |force| tolerance             : 0.1000E-01   eV/A
 max ionic |displacement| tolerance             : 0.5000E-03   A
   max |stress component| tolerance             : 0.2000E-01   GPa
 convergence tolerance window                   :          2   steps
 backup results every                           :          5   steps

 *******************************************************************************
  
 
                           -------------------------------
                                      Unit Cell
                           -------------------------------
        Real Lattice(A)                      Reciprocal Lattice(1/A)
   4.2685536   0.0000000   0.0000000        1.4719706   0.0000000   0.0000000
   0.0000000   2.5050474   0.0000000        0.0000000   2.5082102   0.0000000
   0.0000000   0.0000000   5.0370715        0.0000000   0.0000000   1.2473885
 
                       Lattice parameters(A)       Cell Angles
                    a =    4.268554          alpha =   90.000000
                    b =    2.505047          beta  =   90.000000
                    c =    5.037072          gamma =   90.000000
 
                       Current cell volume =   53.861049       A**3
 
                           -------------------------------
                                     Cell Contents
                           -------------------------------
                         Total number of ions in cell =    8
                      Total number of species in cell =    2
                        Max number of any one species =    4
 
            xxxxxxxxxxxxxxxxxxxxxxxxxxxxxxxxxxxxxxxxxxxxxxxxxxxxxxxxxxxx
            x  Element    Atom        Fractional coordinates of atoms  x
            x            Number           u          v          w      x
            x----------------------------------------------------------x
            x   C          1          0.182228   0.000000   0.563950   x
            x   C          2         -0.182228   0.000000   0.563950   x
            x   C          3          0.317772   0.500000  -0.563950   x
            x   C          4          0.682228   0.500000  -0.563950   x
            x   F          1          0.275617   0.000000   0.824093   x
            x   F          2         -0.275617   0.000000   0.824093   x
            x   F          3          0.224383   0.500000  -0.824093   x
            x   F          4          0.775617   0.500000  -0.824093   x
            xxxxxxxxxxxxxxxxxxxxxxxxxxxxxxxxxxxxxxxxxxxxxxxxxxxxxxxxxxxx
 
 
                         No user defined ionic velocities
 
                           -------------------------------
                                   Details of Species
                           -------------------------------
 
                               Mass of species in AMU
                                    C     12.0109997
                                    F     18.9979992
 
                          Electric Quadrupole Moment (Barn)
                                    C      1.0000000 No Isotope Defined
                                    F      1.0000000 No Isotope Defined
 
                          Files used for pseudopotentials:
                                    C C_00.usp
                                    F F_00.usp
 
                           -------------------------------
                              k-Points For BZ Sampling
                           -------------------------------
                         Number of kpoints used =          45
 
             +++++++++++++++++++++++++++++++++++++++++++++++++++++++
             +  Number       Fractional coordinates        Weight  +
             +-----------------------------------------------------+
             +     1   0.416667   0.450000   0.400000   0.0266667  +
             +     2   0.416667   0.450000   0.200000   0.0266667  +
             +     3   0.416667   0.450000   0.000000   0.0133333  +
             +     4   0.416667   0.350000   0.400000   0.0266667  +
             +     5   0.416667   0.350000   0.200000   0.0266667  +
             +     6   0.416667   0.350000   0.000000   0.0133333  +
             +     7   0.416667   0.250000   0.400000   0.0266667  +
             +     8   0.416667   0.250000   0.200000   0.0266667  +
             +     9   0.416667   0.250000   0.000000   0.0133333  +
             +    10   0.416667   0.150000   0.400000   0.0266667  +
             +    11   0.416667   0.150000   0.200000   0.0266667  +
             +    12   0.416667   0.150000   0.000000   0.0133333  +
             +    13   0.416667   0.050000   0.400000   0.0266667  +
             +    14   0.416667   0.050000   0.200000   0.0266667  +
             +    15   0.416667   0.050000   0.000000   0.0133333  +
             +    16   0.250000   0.450000   0.400000   0.0266667  +
             +    17   0.250000   0.450000   0.200000   0.0266667  +
             +    18   0.250000   0.450000   0.000000   0.0133333  +
             +    19   0.250000   0.350000   0.400000   0.0266667  +
             +    20   0.250000   0.350000   0.200000   0.0266667  +
             +    21   0.250000   0.350000   0.000000   0.0133333  +
             +    22   0.250000   0.250000   0.400000   0.0266667  +
             +    23   0.250000   0.250000   0.200000   0.0266667  +
             +    24   0.250000   0.250000   0.000000   0.0133333  +
             +    25   0.250000   0.150000   0.400000   0.0266667  +
             +    26   0.250000   0.150000   0.200000   0.0266667  +
             +    27   0.250000   0.150000   0.000000   0.0133333  +
             +    28   0.250000   0.050000   0.400000   0.0266667  +
             +    29   0.250000   0.050000   0.200000   0.0266667  +
             +    30   0.250000   0.050000   0.000000   0.0133333  +
             +    31   0.083333   0.450000   0.400000   0.0266667  +
             +    32   0.083333   0.450000   0.200000   0.0266667  +
             +    33   0.083333   0.450000   0.000000   0.0133333  +
             +    34   0.083333   0.350000   0.400000   0.0266667  +
             +    35   0.083333   0.350000   0.200000   0.0266667  +
             +    36   0.083333   0.350000   0.000000   0.0133333  +
             +    37   0.083333   0.250000   0.400000   0.0266667  +
             +    38   0.083333   0.250000   0.200000   0.0266667  +
             +    39   0.083333   0.250000   0.000000   0.0133333  +
             +    40   0.083333   0.150000   0.400000   0.0266667  +
             +    41   0.083333   0.150000   0.200000   0.0266667  +
             +    42   0.083333   0.150000   0.000000   0.0133333  +
             +    43   0.083333   0.050000   0.400000   0.0266667  +
             +    44   0.083333   0.050000   0.200000   0.0266667  +
             +    45   0.083333   0.050000   0.000000   0.0133333  +
             +++++++++++++++++++++++++++++++++++++++++++++++++++++++
 
                           -------------------------------
                               Symmetry and Constraints
                           -------------------------------
 
                          Number of symmetry operations =           8
                 Set iprint > 1 for symmetry rotation details
 
                        Centre of mass is NOT constrained
       There are no ionic constraints specified or generated for this cell
 
                         Number of cell constraints= 3
                         Cell constraints are:  1 2 3 0 0 0
 
                         External pressure/stress (GPa)
                          0.00000   0.00000   0.00000
                                    0.00000   0.00000
                                              1.00000
Calculating finite basis set correction with  3 cut-off energies.
Calculating total energy with cut-off of  360.000eV.
------------------------------------------------------------------------ <-- SCF
SCF loop      Energy           Fermi           Energy gain       Timer   <-- SCF
                               energy          per atom          (sec)   <-- SCF
------------------------------------------------------------------------ <-- SCF
Initial  -2.52249488E+003  5.53175839E+001                         8.78  <-- SCF
      1  -3.14705208E+003  8.99411146E+000   7.80696496E+001      20.64  <-- SCF
      2  -3.27035630E+003  3.75449089E+000   1.54130279E+001      33.50  <-- SCF
      3  -3.27121633E+003  4.98904252E+000   1.07502910E-001      49.38  <-- SCF
      4  -3.27113436E+003  5.22648438E+000  -1.02454143E-002      66.06  <-- SCF
      5  -3.27114425E+003  5.43611732E+000   1.23517431E-003      81.47  <-- SCF
      6  -3.27114728E+003  5.43338761E+000   3.79222705E-004      95.66  <-- SCF
      7  -3.27114743E+003  5.43836855E+000   1.87708554E-005     111.25  <-- SCF
      8  -3.27114747E+003  5.43714048E+000   4.88486431E-006     123.52  <-- SCF
      9  -3.27114747E+003  5.43766679E+000   5.69115534E-008     134.09  <-- SCF
     10  -3.27114747E+003  5.43749320E+000   3.02604917E-008     143.20  <-- SCF
     11  -3.27114747E+003  5.43756269E+000   4.56650507E-009     154.31  <-- SCF
------------------------------------------------------------------------ <-- SCF
 
Final energy, E             =  -3271.147469279     eV
Final free energy (E-TS)    =  -3271.147469287     eV
(energies not corrected for finite basis set)
 
NB est. 0K energy (E-0.5TS) =  -3271.147469283     eV
 
Calculating total energy with cut-off of  365.000eV.
------------------------------------------------------------------------ <-- SCF
SCF loop      Energy           Fermi           Energy gain       Timer   <-- SCF
                               energy          per atom          (sec)   <-- SCF
------------------------------------------------------------------------ <-- SCF
Initial  -3.27114746E+003  5.43754169E+000                       165.22  <-- SCF
      1  -3.27115794E+003  5.43743944E+000   1.31072621E-003     174.72  <-- SCF
      2  -3.27115795E+003  5.43743942E+000   6.83742487E-007     181.55  <-- SCF
      3  -3.27115795E+003  5.43847554E+000  -3.97915097E-008     191.06  <-- SCF
      4  -3.27115795E+003  5.43818460E+000   4.93336259E-007     201.66  <-- SCF
------------------------------------------------------------------------ <-- SCF
 
Final energy, E             =  -3271.157950579     eV
Final free energy (E-TS)    =  -3271.157950587     eV
(energies not corrected for finite basis set)
 
NB est. 0K energy (E-0.5TS) =  -3271.157950583     eV
 
Calculating total energy with cut-off of  370.000eV.
------------------------------------------------------------------------ <-- SCF
SCF loop      Energy           Fermi           Energy gain       Timer   <-- SCF
                               energy          per atom          (sec)   <-- SCF
------------------------------------------------------------------------ <-- SCF
Initial  -3.27115794E+003  5.43864647E+000                       211.31  <-- SCF
      1  -3.27116556E+003  5.43853256E+000   9.52486203E-004     220.70  <-- SCF
      2  -3.27116556E+003  5.43853252E+000   4.58677089E-007     227.83  <-- SCF
      3  -3.27116556E+003  5.43904421E+000   1.80419003E-007     238.45  <-- SCF
      4  -3.27116556E+003  5.43875823E+000   3.07157404E-007     249.80  <-- SCF
------------------------------------------------------------------------ <-- SCF
 
Final energy, E             =  -3271.165563954     eV
Final free energy (E-TS)    =  -3271.165563962     eV
(energies not corrected for finite basis set)
 
NB est. 0K energy (E-0.5TS) =  -3271.165563958     eV
 
 For future reference: finite basis dEtot/dlog(Ecut) =      -0.660161eV
 Total energy corrected for finite basis set =   -3271.165539 eV
 
 ******************************** Forces *********************************
 *                                                                       *
 *                      Cartesian components (eV/A)                      *
 * --------------------------------------------------------------------- *
 *              x                    y                    z              *
 *                                                                       *
 * C    1      0.20995              0.00000              0.25416         *
 * C    2     -0.20995              0.00000              0.25416         *
 * C    3     -0.20995              0.00000             -0.25416         *
 * C    4      0.20995              0.00000             -0.25416         *
 * F    1     -3.67315              0.00000             -1.47586         *
 * F    2      3.67315              0.00000             -1.47586         *
 * F    3      3.67315              0.00000              1.47586         *
 * F    4     -3.67315              0.00000              1.47586         *
 *                                                                       *
 *************************************************************************
 
 ***************** Stress Tensor *****************
 *                                               *
 *          Cartesian components (GPa)           *
 * --------------------------------------------- *
 *             x             y             z     *
 *                                               *
 *  x    -56.562898      0.000000      0.000000  *
 *  y      0.000000    -19.808029      0.000000  *
 *  z      0.000000      0.000000    -28.467275  *
 *                                               *
 *  Pressure:   34.9461                          *
 *                                               *
 *************************************************
 BFGS: finished iteration   0  with enthalpy= -3.27105348E+003 eV
  
 +-----------+-----------------+-----------------+------------+-----+ <-- BFGS
 | Parameter |      value      |    tolerance    |    units   | OK? | <-- BFGS
 +-----------+-----------------+-----------------+------------+-----+ <-- BFGS
 |  dE/ion   |   0.000000E+000 |   5.000000E-006 |         eV | No  | <-- BFGS
 |  |F|max   |   3.958557E+000 |   1.000000E-002 |       eV/A | No  | <-- BFGS
 |  |dR|max  |   0.000000E+000 |   5.000000E-004 |          A | Yes | <-- BFGS
 |   Smax    |   5.656290E+001 |   2.000000E-002 |        GPa | No  | <-- BFGS
 +-----------+-----------------+-----------------+------------+-----+ <-- BFGS
  

================================================================================
 Starting BFGS iteration          1 ...
================================================================================
  
 +------------+-------------+-------------+-----------------+ <-- min BFGS
 |    Step    |   lambda    |   F.delta   |    enthalpy     | <-- min BFGS
 +------------+-------------+-------------+-----------------+ <-- min BFGS
 |  previous  |    0.000000 |    0.050420 |    -3271.053482 | <-- min BFGS
 +------------+-------------+-------------+-----------------+ <-- min BFGS
  

--------------------------------------------------------------------------------
 BFGS: starting iteration         1 with trial guess (lambda=  1.000000)
--------------------------------------------------------------------------------
 
                           -------------------------------
                                      Unit Cell
                           -------------------------------
        Real Lattice(A)              Reciprocal Lattice(1/A)
   4.4295148   0.0000000   0.0000000        1.4184816   0.0000000   0.0000000
   0.0000000   2.5381274   0.0000000        0.0000000   2.4755200   0.0000000
   0.0000000   0.0000000   5.1293079        0.0000000   0.0000000   1.2249577
 
                       Lattice parameters(A)       Cell Angles
                    a =    4.429515          alpha =   90.000000
                    b =    2.538127          beta  =   90.000000
                    c =    5.129308          gamma =   90.000000
 
                Current cell volume =   57.667132 A**3
 
                           -------------------------------
                                     Cell Contents
                           -------------------------------
 
            xxxxxxxxxxxxxxxxxxxxxxxxxxxxxxxxxxxxxxxxxxxxxxxxxxxxxxxxxxxx
            x  Element    Atom        Fractional coordinates of atoms  x
            x            Number           u          v          w      x
            x----------------------------------------------------------x
            x   C          1          0.182538   0.000000   0.564269   x
            x   C          2         -0.182538   0.000000   0.564269   x
            x   C          3          0.317462   0.500000  -0.564269   x
            x   C          4          0.682538   0.500000  -0.564269   x
            x   F          1          0.270191   0.000000   0.822245   x
            x   F          2         -0.270191   0.000000   0.822245   x
            x   F          3          0.229809   0.500000  -0.822245   x
            x   F          4          0.770191   0.500000  -0.822245   x
            xxxxxxxxxxxxxxxxxxxxxxxxxxxxxxxxxxxxxxxxxxxxxxxxxxxxxxxxxxxx
 
 
------------------------------------------------------------------------ <-- SCF
SCF loop      Energy           Fermi           Energy gain       Timer   <-- SCF
                               energy          per atom          (sec)   <-- SCF
------------------------------------------------------------------------ <-- SCF
Initial  -3.29149412E+003  3.31549685E+000                       267.77  <-- SCF
      1  -3.27409644E+003  3.23885285E+000  -2.17470919E+000     280.41  <-- SCF
      2  -3.27411899E+003  3.23918430E+000   2.81868420E-003     293.33  <-- SCF
      3  -3.27224034E+003  4.14996991E+000  -2.34831481E-001     308.14  <-- SCF
      4  -3.27213686E+003  4.32766550E+000  -1.29354689E-002     322.33  <-- SCF
      5  -3.27214502E+003  4.54439621E+000   1.01960097E-003     336.80  <-- SCF
      6  -3.27214821E+003  4.54692759E+000   3.99775147E-004     351.00  <-- SCF
      7  -3.27214834E+003  4.54810983E+000   1.60793879E-005     367.75  <-- SCF
      8  -3.27214838E+003  4.54715009E+000   4.87897163E-006     380.70  <-- SCF
      9  -3.27214838E+003  4.54759211E+000   1.23445047E-007     391.20  <-- SCF
     10  -3.27214838E+003  4.54717775E+000   4.35198490E-009     401.44  <-- SCF
------------------------------------------------------------------------ <-- SCF
 
Final energy, E             =  -3272.148382032     eV
Final free energy (E-TS)    =  -3272.148382040     eV
(energies not corrected for finite basis set)
 
NB est. 0K energy (E-0.5TS) =  -3272.148382036     eV
 
 
 ******************************** Forces *********************************
 *                                                                       *
 *                      Cartesian components (eV/A)                      *
 * --------------------------------------------------------------------- *
 *              x                    y                    z              *
 *                                                                       *
 * C    1      0.06380              0.00000             -0.01757         *
 * C    2     -0.06380              0.00000             -0.01757         *
 * C    3     -0.06380              0.00000              0.01757         *
 * C    4      0.06380              0.00000              0.01757         *
 * F    1     -2.36957              0.00000             -1.70882         *
 * F    2      2.36957              0.00000             -1.70882         *
 * F    3      2.36957              0.00000              1.70882         *
 * F    4     -2.36957              0.00000              1.70882         *
 *                                                                       *
 *************************************************************************
 
 ***************** Stress Tensor *****************
 *                                               *
 *          Cartesian components (GPa)           *
 * --------------------------------------------- *
 *             x             y             z     *
 *                                               *
 *  x    -19.683845      0.000000      0.000000  *
 *  y      0.000000     -9.036233      0.000000  *
 *  z      0.000000      0.000000    -11.712186  *
 *                                               *
 *  Pressure:   13.4774                          *
 *                                               *
 *************************************************
  
 +------------+-------------+-------------+-----------------+ <-- min BFGS
 |    Step    |   lambda    |   F.delta   |    enthalpy     | <-- min BFGS
 +------------+-------------+-------------+-----------------+ <-- min BFGS
 |  previous  |    0.000000 |    0.050420 |    -3271.053482 | <-- min BFGS
 | trial step |    1.000000 |    0.024327 |    -3272.028485 | <-- min BFGS
 +------------+-------------+-------------+-----------------+ <-- min BFGS
  

--------------------------------------------------------------------------------
 BFGS: improving iteration         1 with line minimization (lambda=  1.643804)
--------------------------------------------------------------------------------
 
                           -------------------------------
                                      Unit Cell
                           -------------------------------
        Real Lattice(A)              Reciprocal Lattice(1/A)
   4.5331422   0.0000000   0.0000000        1.3860552   0.0000000   0.0000000
   0.0000000   2.5594245   0.0000000        0.0000000   2.4549212   0.0000000
   0.0000000   0.0000000   5.1886901        0.0000000   0.0000000   1.2109386
 
                       Lattice parameters(A)       Cell Angles
                    a =    4.533142          alpha =   90.000000
                    b =    2.559424          beta  =   90.000000
                    c =    5.188690          gamma =   90.000000
 
                Current cell volume =   60.200403 A**3
 
                           -------------------------------
                                     Cell Contents
                           -------------------------------
 
            xxxxxxxxxxxxxxxxxxxxxxxxxxxxxxxxxxxxxxxxxxxxxxxxxxxxxxxxxxxx
            x  Element    Atom        Fractional coordinates of atoms  x
            x            Number           u          v          w      x
            x----------------------------------------------------------x
            x   C          1          0.182738   0.000000   0.564473   x
            x   C          2         -0.182738   0.000000   0.564473   x
            x   C          3          0.317262   0.500000  -0.564473   x
            x   C          4          0.682738   0.500000  -0.564473   x
            x   F          1          0.266698   0.000000   0.821056   x
            x   F          2         -0.266698   0.000000   0.821056   x
            x   F          3          0.233302   0.500000  -0.821056   x
            x   F          4          0.766698   0.500000  -0.821056   x
            xxxxxxxxxxxxxxxxxxxxxxxxxxxxxxxxxxxxxxxxxxxxxxxxxxxxxxxxxxxx
 
 
------------------------------------------------------------------------ <-- SCF
SCF loop      Energy           Fermi           Energy gain       Timer   <-- SCF
                               energy          per atom          (sec)   <-- SCF
------------------------------------------------------------------------ <-- SCF
Initial  -3.27113503E+003  2.85079808E+000                       418.53  <-- SCF
      1  -3.27430581E+003  2.81482410E+000   3.96347367E-001     429.84  <-- SCF
      2  -3.27431918E+003  2.81486705E+000   1.67206247E-003     444.75  <-- SCF
      3  -3.27249702E+003  3.65885810E+000  -2.27770343E-001     463.45  <-- SCF
      4  -3.27243520E+003  3.81460705E+000  -7.72715409E-003     478.77  <-- SCF
      5  -3.27245742E+003  4.02359641E+000   2.77770481E-003     494.53  <-- SCF
      6  -3.27246053E+003  4.02406490E+000   3.88098731E-004     509.73  <-- SCF
      7  -3.27246065E+003  4.02499798E+000   1.50652248E-005     525.59  <-- SCF
      8  -3.27246069E+003  4.02385764E+000   5.15793674E-006     538.09  <-- SCF
      9  -3.27246069E+003  4.02426746E+000   1.39144366E-007     548.61  <-- SCF
     10  -3.27246069E+003  4.02379656E+000   5.81070272E-009     558.64  <-- SCF
------------------------------------------------------------------------ <-- SCF
 
Final energy, E             =  -3272.460691934     eV
Final free energy (E-TS)    =  -3272.460691942     eV
(energies not corrected for finite basis set)
 
NB est. 0K energy (E-0.5TS) =  -3272.460691938     eV
 
 
 ******************************** Forces *********************************
 *                                                                       *
 *                      Cartesian components (eV/A)                      *
 * --------------------------------------------------------------------- *
 *              x                    y                    z              *
 *                                                                       *
 * C    1      0.08304              0.00000             -0.16894         *
 * C    2     -0.08304              0.00000             -0.16894         *
 * C    3     -0.08304              0.00000              0.16894         *
 * C    4      0.08304              0.00000              0.16894         *
 * F    1     -1.81459              0.00000             -1.86165         *
 * F    2      1.81459              0.00000             -1.86165         *
 * F    3      1.81459              0.00000              1.86165         *
 * F    4     -1.81459              0.00000              1.86165         *
 *                                                                       *
 *************************************************************************
 
 ***************** Stress Tensor *****************
 *                                               *
 *          Cartesian components (GPa)           *
 * --------------------------------------------- *
 *             x             y             z     *
 *                                               *
 *  x     -3.306143      0.000000      0.000000  *
 *  y      0.000000     -3.491112      0.000000  *
 *  z      0.000000      0.000000     -2.751873  *
 *                                               *
 *  Pressure:    3.1830                          *
 *                                               *
 *************************************************
  
 +------------+-------------+-------------+-----------------+ <-- min BFGS
 |    Step    |   lambda    |   F.delta   |    enthalpy     | <-- min BFGS
 +------------+-------------+-------------+-----------------+ <-- min BFGS
 |  previous  |    0.000000 |    0.050420 |    -3271.053482 | <-- min BFGS
 | trial step |    1.000000 |    0.024327 |    -3272.028485 | <-- min BFGS
 |  line step |    1.643804 |    0.011834 |    -3272.335299 | <-- min BFGS
 +------------+-------------+-------------+-----------------+ <-- min BFGS
  
 BFGS: finished iteration   1  with enthalpy= -3.27233530E+003 eV
  
 +-----------+-----------------+-----------------+------------+-----+ <-- BFGS
 | Parameter |      value      |    tolerance    |    units   | OK? | <-- BFGS
 +-----------+-----------------+-----------------+------------+-----+ <-- BFGS
 |  dE/ion   |   1.602271E-001 |   5.000000E-006 |         eV | No  | <-- BFGS
 |  |F|max   |   2.599706E+000 |   1.000000E-002 |       eV/A | No  | <-- BFGS
 |  |dR|max  |   4.339270E-002 |   5.000000E-004 |          A | No  | <-- BFGS
 |   Smax    |   3.491116E+000 |   2.000000E-002 |        GPa | No  | <-- BFGS
 +-----------+-----------------+-----------------+------------+-----+ <-- BFGS
  

================================================================================
 Starting BFGS iteration          2 ...
================================================================================
  
 +------------+-------------+-------------+-----------------+ <-- min BFGS
 |    Step    |   lambda    |   F.delta   |    enthalpy     | <-- min BFGS
 +------------+-------------+-------------+-----------------+ <-- min BFGS
 |  previous  |    0.000000 |    0.013407 |    -3272.335299 | <-- min BFGS
 +------------+-------------+-------------+-----------------+ <-- min BFGS
  

--------------------------------------------------------------------------------
 BFGS: starting iteration         2 with trial guess (lambda=  1.000000)
--------------------------------------------------------------------------------
 
                           -------------------------------
                                      Unit Cell
                           -------------------------------
        Real Lattice(A)              Reciprocal Lattice(1/A)
   4.6016165   0.0000000   0.0000000        1.3654300   0.0000000   0.0000000
   0.0000000   2.5791720   0.0000000        0.0000000   2.4361249   0.0000000
   0.0000000   0.0000000   5.2288547        0.0000000   0.0000000   1.2016370
 
                       Lattice parameters(A)       Cell Angles
                    a =    4.601616          alpha =   90.000000
                    b =    2.579172          beta  =   90.000000
                    c =    5.228855          gamma =   90.000000
 
                Current cell volume =   62.057933 A**3
 
                           -------------------------------
                                     Cell Contents
                           -------------------------------
 
            xxxxxxxxxxxxxxxxxxxxxxxxxxxxxxxxxxxxxxxxxxxxxxxxxxxxxxxxxxxx
            x  Element    Atom        Fractional coordinates of atoms  x
            x            Number           u          v          w      x
            x----------------------------------------------------------x
            x   C          1          0.183015   0.000000   0.564299   x
            x   C          2         -0.183015   0.000000   0.564299   x
            x   C          3          0.316985   0.500000  -0.564299   x
            x   C          4          0.683015   0.500000  -0.564299   x
            x   F          1          0.261106   0.000000   0.817282   x
            x   F          2         -0.261106   0.000000   0.817282   x
            x   F          3          0.238894   0.500000  -0.817282   x
            x   F          4          0.761106   0.500000  -0.817282   x
            xxxxxxxxxxxxxxxxxxxxxxxxxxxxxxxxxxxxxxxxxxxxxxxxxxxxxxxxxxxx
 
 
------------------------------------------------------------------------ <-- SCF
SCF loop      Energy           Fermi           Energy gain       Timer   <-- SCF
                               energy          per atom          (sec)   <-- SCF
------------------------------------------------------------------------ <-- SCF
Initial  -3.26401343E+003  2.58817417E+000                       575.73  <-- SCF
      1  -3.27450784E+003  2.53850991E+000   1.31180178E+000     589.42  <-- SCF
      2  -3.27452406E+003  2.53877457E+000   2.02635703E-003     604.11  <-- SCF
      3  -3.27277776E+003  3.34109812E+000  -2.18286546E-001     629.53  <-- SCF
      4  -3.27271385E+003  3.50126529E+000  -7.98880339E-003     650.23  <-- SCF
      5  -3.27273666E+003  3.70888044E+000   2.85128960E-003     666.45  <-- SCF
      6  -3.27273980E+003  3.70802907E+000   3.92068404E-004     682.89  <-- SCF
      7  -3.27273992E+003  3.70940643E+000   1.55992243E-005     700.06  <-- SCF
      8  -3.27273997E+003  3.70794070E+000   5.20397824E-006     718.11  <-- SCF
      9  -3.27273997E+003  3.70825521E+000   1.54123365E-007     735.28  <-- SCF
     10  -3.27273997E+003  3.70778670E+000   6.55664126E-009     752.23  <-- SCF
------------------------------------------------------------------------ <-- SCF
 
Final energy, E             =  -3272.739967017     eV
Final free energy (E-TS)    =  -3272.739967025     eV
(energies not corrected for finite basis set)
 
NB est. 0K energy (E-0.5TS) =  -3272.739967021     eV
 
 
 ******************************** Forces *********************************
 *                                                                       *
 *                      Cartesian components (eV/A)                      *
 * --------------------------------------------------------------------- *
 *              x                    y                    z              *
 *                                                                       *
 * C    1     -0.05782              0.00000             -0.62029         *
 * C    2      0.05782              0.00000             -0.62029         *
 * C    3      0.05782              0.00000              0.62029         *
 * C    4     -0.05782              0.00000              0.62029         *
 * F    1     -1.16473              0.00000             -1.27824         *
 * F    2      1.16473              0.00000             -1.27824         *
 * F    3      1.16473              0.00000              1.27824         *
 * F    4     -1.16473              0.00000              1.27824         *
 *                                                                       *
 *************************************************************************
 
 ***************** Stress Tensor *****************
 *                                               *
 *          Cartesian components (GPa)           *
 * --------------------------------------------- *
 *             x             y             z     *
 *                                               *
 *  x      4.942209      0.000000      0.000000  *
 *  y      0.000000      0.950766      0.000000  *
 *  z      0.000000      0.000000     -5.094747  *
 *                                               *
 *  Pressure:   -0.2661                          *
 *                                               *
 *************************************************
  
 +------------+-------------+-------------+-----------------+ <-- min BFGS
 |    Step    |   lambda    |   F.delta   |    enthalpy     | <-- min BFGS
 +------------+-------------+-------------+-----------------+ <-- min BFGS
 |  previous  |    0.000000 |    0.013407 |    -3272.335299 | <-- min BFGS
 | trial step |    1.000000 |    0.007483 |    -3272.611266 | <-- min BFGS
 +------------+-------------+-------------+-----------------+ <-- min BFGS
  

--------------------------------------------------------------------------------
 BFGS: improving iteration         2 with line minimization (lambda=  2.263286)
--------------------------------------------------------------------------------
 
                           -------------------------------
                                      Unit Cell
                           -------------------------------
        Real Lattice(A)              Reciprocal Lattice(1/A)
   4.6881190   0.0000000   0.0000000        1.3402359   0.0000000   0.0000000
   0.0000000   2.6041189   0.0000000        0.0000000   2.4127875   0.0000000
   0.0000000   0.0000000   5.2795941        0.0000000   0.0000000   1.1900887
 
                       Lattice parameters(A)       Cell Angles
                    a =    4.688119          alpha =   90.000000
                    b =    2.604119          beta  =   90.000000
                    c =    5.279594          gamma =   90.000000
 
                Current cell volume =   64.455497 A**3
 
                           -------------------------------
                                     Cell Contents
                           -------------------------------
 
            xxxxxxxxxxxxxxxxxxxxxxxxxxxxxxxxxxxxxxxxxxxxxxxxxxxxxxxxxxxx
            x  Element    Atom        Fractional coordinates of atoms  x
            x            Number           u          v          w      x
            x----------------------------------------------------------x
            x   C          1          0.183365   0.000000   0.564078   x
            x   C          2         -0.183365   0.000000   0.564078   x
            x   C          3          0.316635   0.500000  -0.564078   x
            x   C          4          0.683365   0.500000  -0.564078   x
            x   F          1          0.254042   0.000000   0.812514   x
            x   F          2         -0.254042   0.000000   0.812514   x
            x   F          3          0.245958   0.500000  -0.812514   x
            x   F          4          0.754042   0.500000  -0.812514   x
            xxxxxxxxxxxxxxxxxxxxxxxxxxxxxxxxxxxxxxxxxxxxxxxxxxxxxxxxxxxx
 
 
------------------------------------------------------------------------ <-- SCF
SCF loop      Energy           Fermi           Energy gain       Timer   <-- SCF
                               energy          per atom          (sec)   <-- SCF
------------------------------------------------------------------------ <-- SCF
Initial  -3.27503011E+003  2.29345218E+000                       780.08  <-- SCF
      1  -3.27456497E+003  2.21716641E+000  -5.81425108E-002     797.83  <-- SCF
      2  -3.27459197E+003  2.21800245E+000   3.37534990E-003     817.80  <-- SCF
      3  -3.27289175E+003  2.97866303E+000  -2.12528596E-001     842.61  <-- SCF
      4  -3.27285622E+003  3.14657472E+000  -4.44048980E-003     867.30  <-- SCF
      5  -3.27288497E+003  3.35487098E+000   3.59349186E-003     892.61  <-- SCF
      6  -3.27288817E+003  3.35283402E+000   4.00309238E-004     917.39  <-- SCF
      7  -3.27288831E+003  3.35453896E+000   1.67323640E-005     943.23  <-- SCF
      8  -3.27288835E+003  3.35280478E+000   5.47696816E-006     964.59  <-- SCF
      9  -3.27288835E+003  3.35305241E+000   1.58718727E-007     982.34  <-- SCF
     10  -3.27288835E+003  3.35255567E+000   8.64316169E-009     999.73  <-- SCF
------------------------------------------------------------------------ <-- SCF
 
Final energy, E             =  -3272.888350583     eV
Final free energy (E-TS)    =  -3272.888350591     eV
(energies not corrected for finite basis set)
 
NB est. 0K energy (E-0.5TS) =  -3272.888350587     eV
 
 
 ******************************** Forces *********************************
 *                                                                       *
 *                      Cartesian components (eV/A)                      *
 * --------------------------------------------------------------------- *
 *              x                    y                    z              *
 *                                                                       *
 * C    1     -0.17837              0.00000             -1.25191         *
 * C    2      0.17837              0.00000             -1.25191         *
 * C    3      0.17837              0.00000              1.25191         *
 * C    4     -0.17837              0.00000              1.25191         *
 * F    1     -0.51438              0.00000             -0.51666         *
 * F    2      0.51438              0.00000             -0.51666         *
 * F    3      0.51438              0.00000              0.51666         *
 * F    4     -0.51438              0.00000              0.51666         *
 *                                                                       *
 *************************************************************************
 
 ***************** Stress Tensor *****************
 *                                               *
 *          Cartesian components (GPa)           *
 * --------------------------------------------- *
 *             x             y             z     *
 *                                               *
 *  x     11.971260      0.000000      0.000000  *
 *  y      0.000000      5.647758      0.000000  *
 *  z      0.000000      0.000000     -9.134383  *
 *                                               *
 *  Pressure:   -2.8282                          *
 *                                               *
 *************************************************
  
 +------------+-------------+-------------+-----------------+ <-- min BFGS
 |    Step    |   lambda    |   F.delta   |    enthalpy     | <-- min BFGS
 +------------+-------------+-------------+-----------------+ <-- min BFGS
 |  previous  |    0.000000 |    0.013407 |    -3272.335299 | <-- min BFGS
 | trial step |    1.000000 |    0.007483 |    -3272.611266 | <-- min BFGS
 |  line step |    2.263286 |    0.001328 |    -3272.754120 | <-- min BFGS
 +------------+-------------+-------------+-----------------+ <-- min BFGS
  
 BFGS: finished iteration   2  with enthalpy= -3.27275412E+003 eV
  
 +-----------+-----------------+-----------------+------------+-----+ <-- BFGS
 | Parameter |      value      |    tolerance    |    units   | OK? | <-- BFGS
 +-----------+-----------------+-----------------+------------+-----+ <-- BFGS
 |  dE/ion   |   5.235260E-002 |   5.000000E-006 |         eV | No  | <-- BFGS
 |  |F|max   |   1.264550E+000 |   1.000000E-002 |       eV/A | No  | <-- BFGS
 |  |dR|max  |   7.452436E-002 |   5.000000E-004 |          A | No  | <-- BFGS
 |   Smax    |   1.197126E+001 |   2.000000E-002 |        GPa | No  | <-- BFGS
 +-----------+-----------------+-----------------+------------+-----+ <-- BFGS
  

================================================================================
 Starting BFGS iteration          3 ...
================================================================================
  
 +------------+-------------+-------------+-----------------+ <-- min BFGS
 |    Step    |   lambda    |   F.delta   |    enthalpy     | <-- min BFGS
 +------------+-------------+-------------+-----------------+ <-- min BFGS
 |  previous  |    0.000000 |    0.005730 |    -3272.754120 | <-- min BFGS
 +------------+-------------+-------------+-----------------+ <-- min BFGS
  

--------------------------------------------------------------------------------
 BFGS: starting iteration         3 with trial guess (lambda=  1.000000)
--------------------------------------------------------------------------------
 
                           -------------------------------
                                      Unit Cell
                           -------------------------------
        Real Lattice(A)              Reciprocal Lattice(1/A)
   4.6846901   0.0000000   0.0000000        1.3412169   0.0000000   0.0000000
   0.0000000   2.6025640   0.0000000        0.0000000   2.4142289   0.0000000
   0.0000000   0.0000000   5.3363002        0.0000000   0.0000000   1.1774422
 
                       Lattice parameters(A)       Cell Angles
                    a =    4.684690          alpha =   90.000000
                    b =    2.602564          beta  =   90.000000
                    c =    5.336300          gamma =   90.000000
 
                Current cell volume =   65.061270 A**3
 
                           -------------------------------
                                     Cell Contents
                           -------------------------------
 
            xxxxxxxxxxxxxxxxxxxxxxxxxxxxxxxxxxxxxxxxxxxxxxxxxxxxxxxxxxxx
            x  Element    Atom        Fractional coordinates of atoms  x
            x            Number           u          v          w      x
            x----------------------------------------------------------x
            x   C          1          0.183187   0.000000   0.562180   x
            x   C          2         -0.183187   0.000000   0.562180   x
            x   C          3          0.316813   0.500000  -0.562180   x
            x   C          4          0.683187   0.500000  -0.562180   x
            x   F          1          0.250261   0.000000   0.809888   x
            x   F          2         -0.250261   0.000000   0.809888   x
            x   F          3          0.249739   0.500000  -0.809888   x
            x   F          4          0.750261   0.500000  -0.809888   x
            xxxxxxxxxxxxxxxxxxxxxxxxxxxxxxxxxxxxxxxxxxxxxxxxxxxxxxxxxxxx
 
 
------------------------------------------------------------------------ <-- SCF
SCF loop      Energy           Fermi           Energy gain       Timer   <-- SCF
                               energy          per atom          (sec)   <-- SCF
------------------------------------------------------------------------ <-- SCF
Initial  -3.23993717E+003  2.04747710E+000                      1027.80  <-- SCF
      1  -3.27472416E+003  2.01987883E+000   4.34837405E+000    1045.44  <-- SCF
      2  -3.27473470E+003  2.01981482E+000   1.31801685E-003    1063.78  <-- SCF
      3  -3.27306259E+003  2.78516279E+000  -2.09014134E-001    1087.52  <-- SCF
      4  -3.27300125E+003  2.94204250E+000  -7.66805776E-003    1111.08  <-- SCF
      5  -3.27302555E+003  3.14554151E+000   3.03787095E-003    1134.53  <-- SCF
      6  -3.27302865E+003  3.14132441E+000   3.87379133E-004    1158.02  <-- SCF
      7  -3.27302879E+003  3.14300954E+000   1.74552998E-005    1182.33  <-- SCF
      8  -3.27302883E+003  3.14086702E+000   5.07967439E-006    1202.61  <-- SCF
      9  -3.27302883E+003  3.14106678E+000   1.83404449E-007    1219.55  <-- SCF
     10  -3.27302883E+003  3.14051974E+000   1.38192946E-008    1236.52  <-- SCF
------------------------------------------------------------------------ <-- SCF
 
Final energy, E             =  -3273.028830162     eV
Final free energy (E-TS)    =  -3273.028830170     eV
(energies not corrected for finite basis set)
 
NB est. 0K energy (E-0.5TS) =  -3273.028830166     eV
 
 
 ******************************** Forces *********************************
 *                                                                       *
 *                      Cartesian components (eV/A)                      *
 * --------------------------------------------------------------------- *
 *              x                    y                    z              *
 *                                                                       *
 * C    1     -0.22906              0.00000             -0.96930         *
 * C    2      0.22906              0.00000             -0.96930         *
 * C    3      0.22906              0.00000              0.96930         *
 * C    4     -0.22906              0.00000              0.96930         *
 * F    1     -0.31973              0.00000             -0.59757         *
 * F    2      0.31973              0.00000             -0.59757         *
 * F    3      0.31973              0.00000              0.59757         *
 * F    4     -0.31973              0.00000              0.59757         *
 *                                                                       *
 *************************************************************************
 
 ***************** Stress Tensor *****************
 *                                               *
 *          Cartesian components (GPa)           *
 * --------------------------------------------- *
 *             x             y             z     *
 *                                               *
 *  x     11.146459      0.000000      0.000000  *
 *  y      0.000000      5.971708      0.000000  *
 *  z      0.000000      0.000000     -5.431845  *
 *                                               *
 *  Pressure:   -3.8954                          *
 *                                               *
 *************************************************
  
 +------------+-------------+-------------+-----------------+ <-- min BFGS
 |    Step    |   lambda    |   F.delta   |    enthalpy     | <-- min BFGS
 +------------+-------------+-------------+-----------------+ <-- min BFGS
 |  previous  |    0.000000 |    0.005730 |    -3272.754120 | <-- min BFGS
 | trial step |    1.000000 |    0.004412 |    -3272.893604 | <-- min BFGS
 +------------+-------------+-------------+-----------------+ <-- min BFGS
  

--------------------------------------------------------------------------------
 BFGS: improving iteration         3 with line minimization (lambda=  4.348271)
--------------------------------------------------------------------------------
 
                           -------------------------------
                                      Unit Cell
                           -------------------------------
        Real Lattice(A)              Reciprocal Lattice(1/A)
   4.6732091   0.0000000   0.0000000        1.3445119   0.0000000   0.0000000
   0.0000000   2.5973579   0.0000000        0.0000000   2.4190679   0.0000000
   0.0000000   0.0000000   5.5261677        0.0000000   0.0000000   1.1369878
 
                       Lattice parameters(A)       Cell Angles
                    a =    4.673209          alpha =   90.000000
                    b =    2.597358          beta  =   90.000000
                    c =    5.526168          gamma =   90.000000
 
                Current cell volume =   67.076605 A**3
 
                           -------------------------------
                                     Cell Contents
                           -------------------------------
 
            xxxxxxxxxxxxxxxxxxxxxxxxxxxxxxxxxxxxxxxxxxxxxxxxxxxxxxxxxxxx
            x  Element    Atom        Fractional coordinates of atoms  x
            x            Number           u          v          w      x
            x----------------------------------------------------------x
            x   C          1          0.182589   0.000000   0.555825   x
            x   C          2         -0.182589   0.000000   0.555825   x
            x   C          3          0.317411   0.500000  -0.555825   x
            x   C          4          0.682589   0.500000  -0.555825   x
            x   F          1          0.237600   0.000000   0.801097   x
            x   F          2         -0.237600   0.000000   0.801097   x
            x   F          3          0.262400   0.500000  -0.801097   x
            x   F          4          0.737600   0.500000  -0.801097   x
            xxxxxxxxxxxxxxxxxxxxxxxxxxxxxxxxxxxxxxxxxxxxxxxxxxxxxxxxxxxx
 
 
------------------------------------------------------------------------ <-- SCF
SCF loop      Energy           Fermi           Energy gain       Timer   <-- SCF
                               energy          per atom          (sec)   <-- SCF
------------------------------------------------------------------------ <-- SCF
Initial  -3.26827166E+003  1.84922512E+000                      1264.36  <-- SCF
      1  -3.27482877E+003  1.48072988E+000   8.19638331E-001    1283.03  <-- SCF
      2  -3.27496909E+003  1.49053083E+000   1.75404822E-002    1297.58  <-- SCF
      3  -3.27326753E+003  2.17948184E+000  -2.12695331E-001    1313.83  <-- SCF
      4  -3.27320685E+003  2.29240659E+000  -7.58435635E-003    1329.97  <-- SCF
      5  -3.27322954E+003  2.48528369E+000   2.83643908E-003    1346.53  <-- SCF
      6  -3.27323244E+003  2.47771948E+000   3.61436824E-004    1362.84  <-- SCF
      7  -3.27323254E+003  2.47777132E+000   1.24903662E-005    1379.56  <-- SCF
      8  -3.27323257E+003  2.47492634E+000   4.72600154E-006    1394.72  <-- SCF
      9  -3.27323258E+003  2.47504631E+000   2.77790617E-007    1406.25  <-- SCF
     10  -3.27323258E+003  2.47450715E+000   1.90974672E-008    1417.69  <-- SCF
------------------------------------------------------------------------ <-- SCF
 
Final energy, E             =  -3273.232575788     eV
Final free energy (E-TS)    =  -3273.232575796     eV
(energies not corrected for finite basis set)
 
NB est. 0K energy (E-0.5TS) =  -3273.232575792     eV
 
 
 ******************************** Forces *********************************
 *                                                                       *
 *                      Cartesian components (eV/A)                      *
 * --------------------------------------------------------------------- *
 *              x                    y                    z              *
 *                                                                       *
 * C    1     -0.42196              0.00000              0.12695         *
 * C    2      0.42196              0.00000              0.12695         *
 * C    3      0.42196              0.00000             -0.12695         *
 * C    4     -0.42196              0.00000             -0.12695         *
 * F    1      0.42713              0.00000             -0.95803         *
 * F    2     -0.42713              0.00000             -0.95803         *
 * F    3     -0.42713              0.00000              0.95803         *
 * F    4      0.42713              0.00000              0.95803         *
 *                                                                       *
 *************************************************************************
 
 ***************** Stress Tensor *****************
 *                                               *
 *          Cartesian components (GPa)           *
 * --------------------------------------------- *
 *             x             y             z     *
 *                                               *
 *  x      6.253214      0.000000      0.000000  *
 *  y      0.000000      6.188602      0.000000  *
 *  z      0.000000      0.000000      5.057277  *
 *                                               *
 *  Pressure:   -5.8330                          *
 *                                               *
 *************************************************
  
 +------------+-------------+-------------+-----------------+ <-- min BFGS
 |    Step    |   lambda    |   F.delta   |    enthalpy     | <-- min BFGS
 +------------+-------------+-------------+-----------------+ <-- min BFGS
 |  previous  |    0.000000 |    0.005730 |    -3272.754120 | <-- min BFGS
 | trial step |    1.000000 |    0.004412 |    -3272.893604 | <-- min BFGS
 |  line step |    4.348271 |   -0.000039 |    -3273.093061 | <-- min BFGS
 +------------+-------------+-------------+-----------------+ <-- min BFGS
  
 BFGS: finished iteration   3  with enthalpy= -3.27309306E+003 eV
  
 +-----------+-----------------+-----------------+------------+-----+ <-- BFGS
 | Parameter |      value      |    tolerance    |    units   | OK? | <-- BFGS
 +-----------+-----------------+-----------------+------------+-----+ <-- BFGS
 |  dE/ion   |   4.236770E-002 |   5.000000E-006 |         eV | No  | <-- BFGS
 |  |F|max   |   1.048932E+000 |   1.000000E-002 |       eV/A | No  | <-- BFGS
 |  |dR|max  |   9.942088E-002 |   5.000000E-004 |          A | No  | <-- BFGS
 |   Smax    |   6.253209E+000 |   2.000000E-002 |        GPa | No  | <-- BFGS
 +-----------+-----------------+-----------------+------------+-----+ <-- BFGS
  

================================================================================
 Starting BFGS iteration          4 ...
================================================================================
  
 +------------+-------------+-------------+-----------------+ <-- min BFGS
 |    Step    |   lambda    |   F.delta   |    enthalpy     | <-- min BFGS
 +------------+-------------+-------------+-----------------+ <-- min BFGS
 |  previous  |    0.000000 |    0.003185 |    -3273.093061 | <-- min BFGS
 +------------+-------------+-------------+-----------------+ <-- min BFGS
  

--------------------------------------------------------------------------------
 BFGS: starting iteration         4 with trial guess (lambda=  1.000000)
--------------------------------------------------------------------------------
 
                           -------------------------------
                                      Unit Cell
                           -------------------------------
        Real Lattice(A)              Reciprocal Lattice(1/A)
   4.6330377   0.0000000   0.0000000        1.3561697   0.0000000   0.0000000
   0.0000000   2.5794178   0.0000000        0.0000000   2.4358928   0.0000000
   0.0000000   0.0000000   5.5158194        0.0000000   0.0000000   1.1391209
 
                       Lattice parameters(A)       Cell Angles
                    a =    4.633038          alpha =   90.000000
                    b =    2.579418          beta  =   90.000000
                    c =    5.515819          gamma =   90.000000
 
                Current cell volume =   65.917021 A**3
 
                           -------------------------------
                                     Cell Contents
                           -------------------------------
 
            xxxxxxxxxxxxxxxxxxxxxxxxxxxxxxxxxxxxxxxxxxxxxxxxxxxxxxxxxxxx
            x  Element    Atom        Fractional coordinates of atoms  x
            x            Number           u          v          w      x
            x----------------------------------------------------------x
            x   C          1          0.181773   0.000000   0.555238   x
            x   C          2         -0.181773   0.000000   0.555238   x
            x   C          3          0.318227   0.500000  -0.555238   x
            x   C          4          0.681773   0.500000  -0.555238   x
            x   F          1          0.238007   0.000000   0.799516   x
            x   F          2         -0.238007   0.000000   0.799516   x
            x   F          3          0.261993   0.500000  -0.799516   x
            x   F          4          0.738007   0.500000  -0.799516   x
            xxxxxxxxxxxxxxxxxxxxxxxxxxxxxxxxxxxxxxxxxxxxxxxxxxxxxxxxxxxx
 
 
------------------------------------------------------------------------ <-- SCF
SCF loop      Energy           Fermi           Energy gain       Timer   <-- SCF
                               energy          per atom          (sec)   <-- SCF
------------------------------------------------------------------------ <-- SCF
Initial  -3.21198073E+003  1.55118897E+000                      1436.12  <-- SCF
      1  -3.27507772E+003  1.54663561E+000   7.88712349E+000    1447.64  <-- SCF
      2  -3.27508222E+003  1.54662158E+000   5.62770154E-004    1461.41  <-- SCF
      3  -3.27334741E+003  2.37599335E+000  -2.16852033E-001    1477.47  <-- SCF
      4  -3.27327774E+003  2.50679312E+000  -8.70809304E-003    1493.52  <-- SCF
      5  -3.27329696E+003  2.70134112E+000   2.40194573E-003    1511.16  <-- SCF
      6  -3.27329992E+003  2.69461000E+000   3.70432526E-004    1527.50  <-- SCF
      7  -3.27330003E+003  2.69417561E+000   1.41682536E-005    1544.94  <-- SCF
      8  -3.27330007E+003  2.69139898E+000   3.85216242E-006    1559.48  <-- SCF
      9  -3.27330007E+003  2.69147502E+000   2.82395937E-007    1573.39  <-- SCF
     10  -3.27330007E+003  2.69094404E+000   1.41128943E-008    1584.97  <-- SCF
------------------------------------------------------------------------ <-- SCF
 
Final energy, E             =  -3273.300067499     eV
Final free energy (E-TS)    =  -3273.300067507     eV
(energies not corrected for finite basis set)
 
NB est. 0K energy (E-0.5TS) =  -3273.300067503     eV
 
 
 ******************************** Forces *********************************
 *                                                                       *
 *                      Cartesian components (eV/A)                      *
 * --------------------------------------------------------------------- *
 *              x                    y                    z              *
 *                                                                       *
 * C    1     -0.33555              0.00000              0.10558         *
 * C    2      0.33555              0.00000              0.10558         *
 * C    3      0.33555              0.00000             -0.10558         *
 * C    4     -0.33555              0.00000             -0.10558         *
 * F    1      0.47776              0.00000             -0.58493         *
 * F    2     -0.47776              0.00000             -0.58493         *
 * F    3     -0.47776              0.00000              0.58493         *
 * F    4      0.47776              0.00000              0.58493         *
 *                                                                       *
 *************************************************************************
 
 ***************** Stress Tensor *****************
 *                                               *
 *          Cartesian components (GPa)           *
 * --------------------------------------------- *
 *             x             y             z     *
 *                                               *
 *  x      2.781640      0.000000      0.000000  *
 *  y      0.000000      3.106443      0.000000  *
 *  z      0.000000      0.000000     -0.624692  *
 *                                               *
 *  Pressure:   -1.7545                          *
 *                                               *
 *************************************************
  
 +------------+-------------+-------------+-----------------+ <-- min BFGS
 |    Step    |   lambda    |   F.delta   |    enthalpy     | <-- min BFGS
 +------------+-------------+-------------+-----------------+ <-- min BFGS
 |  previous  |    0.000000 |    0.003185 |    -3273.093061 | <-- min BFGS
 | trial step |    1.000000 |    0.001721 |    -3273.163156 | <-- min BFGS
 +------------+-------------+-------------+-----------------+ <-- min BFGS
  

--------------------------------------------------------------------------------
 BFGS: improving iteration         4 with line minimization (lambda=  2.174838)
--------------------------------------------------------------------------------
 
                           -------------------------------
                                      Unit Cell
                           -------------------------------
        Real Lattice(A)              Reciprocal Lattice(1/A)
   4.5858427   0.0000000   0.0000000        1.3701266   0.0000000   0.0000000
   0.0000000   2.5583411   0.0000000        0.0000000   2.4559607   0.0000000
   0.0000000   0.0000000   5.5036619        0.0000000   0.0000000   1.1416372
 
                       Lattice parameters(A)       Cell Angles
                    a =    4.585843          alpha =   90.000000
                    b =    2.558341          beta  =   90.000000
                    c =    5.503662          gamma =   90.000000
 
                Current cell volume =   64.569787 A**3
 
                           -------------------------------
                                     Cell Contents
                           -------------------------------
 
            xxxxxxxxxxxxxxxxxxxxxxxxxxxxxxxxxxxxxxxxxxxxxxxxxxxxxxxxxxxx
            x  Element    Atom        Fractional coordinates of atoms  x
            x            Number           u          v          w      x
            x----------------------------------------------------------x
            x   C          1          0.180813   0.000000   0.554549   x
            x   C          2         -0.180813   0.000000   0.554549   x
            x   C          3          0.319187   0.500000  -0.554549   x
            x   C          4          0.680813   0.500000  -0.554549   x
            x   F          1          0.238486   0.000000   0.797658   x
            x   F          2         -0.238486   0.000000   0.797658   x
            x   F          3          0.261514   0.500000  -0.797658   x
            x   F          4          0.738486   0.500000  -0.797658   x
            xxxxxxxxxxxxxxxxxxxxxxxxxxxxxxxxxxxxxxxxxxxxxxxxxxxxxxxxxxxx
 
 
------------------------------------------------------------------------ <-- SCF
SCF loop      Energy           Fermi           Energy gain       Timer   <-- SCF
                               energy          per atom          (sec)   <-- SCF
------------------------------------------------------------------------ <-- SCF
Initial  -3.20655161E+003  1.75159087E+000                      1605.28  <-- SCF
      1  -3.27516333E+003  1.74604725E+000   8.57646480E+000    1619.98  <-- SCF
      2  -3.27516737E+003  1.74603204E+000   5.04890493E-004    1634.73  <-- SCF
      3  -3.27339110E+003  2.61165670E+000  -2.22033313E-001    1651.61  <-- SCF
      4  -3.27330817E+003  2.76409754E+000  -1.03670340E-002    1670.00  <-- SCF
      5  -3.27332351E+003  2.96326924E+000   1.91805951E-003    1691.02  <-- SCF
      6  -3.27332654E+003  2.95704438E+000   3.78217355E-004    1707.59  <-- SCF
      7  -3.27332666E+003  2.95646103E+000   1.49711389E-005    1724.69  <-- SCF
      8  -3.27332668E+003  2.95374261E+000   3.34037236E-006    1738.81  <-- SCF
      9  -3.27332669E+003  2.95381782E+000   2.71969232E-007    1750.30  <-- SCF
     10  -3.27332669E+003  2.95326721E+000   1.15956901E-008    1761.73  <-- SCF
------------------------------------------------------------------------ <-- SCF
 
Final energy, E             =  -3273.326687050     eV
Final free energy (E-TS)    =  -3273.326687058     eV
(energies not corrected for finite basis set)
 
NB est. 0K energy (E-0.5TS) =  -3273.326687054     eV
 
 
 ******************************** Forces *********************************
 *                                                                       *
 *                      Cartesian components (eV/A)                      *
 * --------------------------------------------------------------------- *
 *              x                    y                    z              *
 *                                                                       *
 * C    1     -0.21479              0.00000              0.07611         *
 * C    2      0.21479              0.00000              0.07611         *
 * C    3      0.21479              0.00000             -0.07611         *
 * C    4     -0.21479              0.00000             -0.07611         *
 * F    1      0.54313              0.00000             -0.12317         *
 * F    2     -0.54313              0.00000             -0.12317         *
 * F    3     -0.54313              0.00000              0.12317         *
 * F    4      0.54313              0.00000              0.12317         *
 *                                                                       *
 *************************************************************************
 
 ***************** Stress Tensor *****************
 *                                               *
 *          Cartesian components (GPa)           *
 * --------------------------------------------- *
 *             x             y             z     *
 *                                               *
 *  x     -1.954607      0.000000      0.000000  *
 *  y      0.000000     -0.858546      0.000000  *
 *  z      0.000000      0.000000     -7.823581  *
 *                                               *
 *  Pressure:    3.5456                          *
 *                                               *
 *************************************************
  
 +------------+-------------+-------------+-----------------+ <-- min BFGS
 |    Step    |   lambda    |   F.delta   |    enthalpy     | <-- min BFGS
 +------------+-------------+-------------+-----------------+ <-- min BFGS
 |  previous  |    0.000000 |    0.003185 |    -3273.093061 | <-- min BFGS
 | trial step |    1.000000 |    0.001721 |    -3273.163156 | <-- min BFGS
 |  line step |    2.174838 |   -0.000144 |    -3273.192416 | <-- min BFGS
 +------------+-------------+-------------+-----------------+ <-- min BFGS
  
 BFGS: finished iteration   4  with enthalpy= -3.27319242E+003 eV
  
 +-----------+-----------------+-----------------+------------+-----+ <-- BFGS
 | Parameter |      value      |    tolerance    |    units   | OK? | <-- BFGS
 +-----------+-----------------+-----------------+------------+-----+ <-- BFGS
 |  dE/ion   |   1.241934E-002 |   5.000000E-006 |         eV | No  | <-- BFGS
 |  |F|max   |   5.569230E-001 |   1.000000E-002 |       eV/A | No  | <-- BFGS
 |  |dR|max  |   1.935865E-002 |   5.000000E-004 |          A | No  | <-- BFGS
 |   Smax    |   6.823581E+000 |   2.000000E-002 |        GPa | No  | <-- BFGS
 +-----------+-----------------+-----------------+------------+-----+ <-- BFGS
  

================================================================================
 Starting BFGS iteration          5 ...
================================================================================
 
Writing model to CF-boat_sym_sz01x00.check                                                                                                                                                                                                                                       
  
 +------------+-------------+-------------+-----------------+ <-- min BFGS
 |    Step    |   lambda    |   F.delta   |    enthalpy     | <-- min BFGS
 +------------+-------------+-------------+-----------------+ <-- min BFGS
 |  previous  |    0.000000 |    0.000860 |    -3273.192416 | <-- min BFGS
 +------------+-------------+-------------+-----------------+ <-- min BFGS
  

--------------------------------------------------------------------------------
 BFGS: starting iteration         5 with trial guess (lambda=  1.000000)
--------------------------------------------------------------------------------
 
                           -------------------------------
                                      Unit Cell
                           -------------------------------
        Real Lattice(A)              Reciprocal Lattice(1/A)
   4.5826216   0.0000000   0.0000000        1.3710897   0.0000000   0.0000000
   0.0000000   2.5563607   0.0000000        0.0000000   2.4578634   0.0000000
   0.0000000   0.0000000   5.5158545        0.0000000   0.0000000   1.1391137
 
                       Lattice parameters(A)       Cell Angles
                    a =    4.582622          alpha =   90.000000
                    b =    2.556361          beta  =   90.000000
                    c =    5.515854          gamma =   90.000000
 
                Current cell volume =   64.617318 A**3
 
                           -------------------------------
                                     Cell Contents
                           -------------------------------
 
            xxxxxxxxxxxxxxxxxxxxxxxxxxxxxxxxxxxxxxxxxxxxxxxxxxxxxxxxxxxx
            x  Element    Atom        Fractional coordinates of atoms  x
            x            Number           u          v          w      x
            x----------------------------------------------------------x
            x   C          1          0.180360   0.000000   0.554829   x
            x   C          2         -0.180360   0.000000   0.554829   x
            x   C          3          0.319640   0.500000  -0.554829   x
            x   C          4          0.680360   0.500000  -0.554829   x
            x   F          1          0.240085   0.000000   0.797679   x
            x   F          2         -0.240085   0.000000   0.797679   x
            x   F          3          0.259915   0.500000  -0.797679   x
            x   F          4          0.740085   0.500000  -0.797679   x
            xxxxxxxxxxxxxxxxxxxxxxxxxxxxxxxxxxxxxxxxxxxxxxxxxxxxxxxxxxxx
 
 
------------------------------------------------------------------------ <-- SCF
SCF loop      Energy           Fermi           Energy gain       Timer   <-- SCF
                               energy          per atom          (sec)   <-- SCF
------------------------------------------------------------------------ <-- SCF
Initial  -3.22721943E+003  1.78436803E+000                      1780.05  <-- SCF
      1  -3.27517819E+003  1.77624735E+000   5.99484531E+000    1792.39  <-- SCF
      2  -3.27518610E+003  1.77623535E+000   9.88896010E-004    1807.30  <-- SCF
      3  -3.27341070E+003  2.62708317E+000  -2.21924723E-001    1827.25  <-- SCF
      4  -3.27332906E+003  2.78139080E+000  -1.02050457E-002    1844.27  <-- SCF
      5  -3.27334410E+003  2.97836378E+000   1.88001116E-003    1860.75  <-- SCF
      6  -3.27334709E+003  2.97116778E+000   3.72998922E-004    1877.48  <-- SCF
      7  -3.27334720E+003  2.97071227E+000   1.43661786E-005    1897.67  <-- SCF
[...]
  
 +-----------+-----------------+-----------------+------------+-----+ <-- BFGS
 | Parameter |      value      |    tolerance    |    units   | OK? | <-- BFGS
 +-----------+-----------------+-----------------+------------+-----+ <-- BFGS
 |  dE/ion   |   2.278638E-005 |   5.000000E-006 |         eV | No  | <-- BFGS
 |  |F|max   |   5.512733E-003 |   1.000000E-002 |       eV/A | Yes | <-- BFGS
 |  |dR|max  |   2.409910E-003 |   5.000000E-004 |          A | No  | <-- BFGS
 |   Smax    |   7.243059E-002 |   2.000000E-002 |        GPa | No  | <-- BFGS
 +-----------+-----------------+-----------------+------------+-----+ <-- BFGS
  

================================================================================
 Starting BFGS iteration         16 ...
================================================================================
  
 +------------+-------------+-------------+-----------------+ <-- min BFGS
 |    Step    |   lambda    |   F.delta   |    enthalpy     | <-- min BFGS
 +------------+-------------+-------------+-----------------+ <-- min BFGS
 |  previous  |    0.000000 |    0.000000 |    -3273.369178 | <-- min BFGS
 +------------+-------------+-------------+-----------------+ <-- min BFGS
  

--------------------------------------------------------------------------------
 BFGS: starting iteration        16 with trial guess (lambda=  1.000000)
--------------------------------------------------------------------------------
 
                           -------------------------------
                                      Unit Cell
                           -------------------------------
        Real Lattice(A)              Reciprocal Lattice(1/A)
   4.5750252   0.0000000   0.0000000        1.3733663   0.0000000   0.0000000
   0.0000000   2.5570676   0.0000000        0.0000000   2.4571839   0.0000000
   0.0000000   0.0000000   6.1613156        0.0000000   0.0000000   1.0197798
 
                       Lattice parameters(A)       Cell Angles
                    a =    4.575025          alpha =   90.000000
                    b =    2.557068          beta  =   90.000000
                    c =    6.161316          gamma =   90.000000
 
                Current cell volume =   72.079069 A**3
 
                           -------------------------------
                                     Cell Contents
                           -------------------------------
 
            xxxxxxxxxxxxxxxxxxxxxxxxxxxxxxxxxxxxxxxxxxxxxxxxxxxxxxxxxxxx
            x  Element    Atom        Fractional coordinates of atoms  x
            x            Number           u          v          w      x
            x----------------------------------------------------------x
            x   C          1          0.180558   0.000000   0.550118   x
            x   C          2         -0.180558   0.000000   0.550118   x
            x   C          3          0.319442   0.500000  -0.550118   x
            x   C          4          0.680558   0.500000  -0.550118   x
            x   F          1          0.245684   0.000000   0.766781   x
            x   F          2         -0.245684   0.000000   0.766781   x
            x   F          3          0.254316   0.500000  -0.766781   x
            x   F          4          0.745684   0.500000  -0.766781   x
            xxxxxxxxxxxxxxxxxxxxxxxxxxxxxxxxxxxxxxxxxxxxxxxxxxxxxxxxxxxx
 
 
------------------------------------------------------------------------ <-- SCF
SCF loop      Energy           Fermi           Energy gain       Timer   <-- SCF
                               energy          per atom          (sec)   <-- SCF
------------------------------------------------------------------------ <-- SCF
Initial  -3.22924272E+003  7.18392831E-001                      5401.72  <-- SCF
      1  -3.27534186E+003  7.12817425E-001   5.76239216E+000    5414.47  <-- SCF
      2  -3.27534852E+003  7.12806378E-001   8.32977367E-004    5429.16  <-- SCF
      3  -3.27353993E+003  1.52995657E+000  -2.26074305E-001    5447.11  <-- SCF
      4  -3.27351303E+003  1.67925413E+000  -3.36215352E-003    5464.59  <-- SCF
      5  -3.27351662E+003  1.86311929E+000   4.49036531E-004    5482.08  <-- SCF
      6  -3.27351930E+003  1.84860298E+000   3.35151944E-004    5500.11  <-- SCF
      7  -3.27351930E+003  1.84304366E+000  -3.66089642E-007    5518.34  <-- SCF
      8  -3.27351926E+003  1.83649021E+000  -4.67055518E-006    5535.11  <-- SCF
      9  -3.27351927E+003  1.83572119E+000   3.39493878E-007    5548.23  <-- SCF
     10  -3.27351927E+003  1.83509430E+000   3.92311857E-008    5560.88  <-- SCF
------------------------------------------------------------------------ <-- SCF
 
Final energy, E             =  -3273.519265524     eV
Final free energy (E-TS)    =  -3273.519265532     eV
(energies not corrected for finite basis set)
 
NB est. 0K energy (E-0.5TS) =  -3273.519265528     eV
 
 
 ******************************** Forces *********************************
 *                                                                       *
 *                      Cartesian components (eV/A)                      *
 * --------------------------------------------------------------------- *
 *              x                    y                    z              *
 *                                                                       *
 * C    1      0.00155              0.00000              0.00533         *
 * C    2     -0.00155              0.00000              0.00533         *
 * C    3     -0.00155              0.00000             -0.00533         *
 * C    4      0.00155              0.00000             -0.00533         *
 * F    1     -0.00171              0.00000              0.00074         *
 * F    2      0.00171              0.00000              0.00074         *
 * F    3      0.00171              0.00000             -0.00074         *
 * F    4     -0.00171              0.00000             -0.00074         *
 *                                                                       *
 *************************************************************************
 
 ***************** Stress Tensor *****************
 *                                               *
 *          Cartesian components (GPa)           *
 * --------------------------------------------- *
 *             x             y             z     *
 *                                               *
 *  x     -0.007830      0.000000      0.000000  *
 *  y      0.000000     -0.017419      0.000000  *
 *  z      0.000000      0.000000     -1.023671  *
 *                                               *
 *  Pressure:    0.3496                          *
 *                                               *
 *************************************************
  
 +------------+-------------+-------------+-----------------+ <-- min BFGS
 |    Step    |   lambda    |   F.delta   |    enthalpy     | <-- min BFGS
 +------------+-------------+-------------+-----------------+ <-- min BFGS
 |  previous  |    0.000000 |    0.000000 |    -3273.369178 | <-- min BFGS
 | trial step |    1.000000 |    0.000000 |    -3273.369314 | <-- min BFGS
 +------------+-------------+-------------+-----------------+ <-- min BFGS
  
 BFGS: finished iteration  16  with enthalpy= -3.27336931E+003 eV
  
 +-----------+-----------------+-----------------+------------+-----+ <-- BFGS
 | Parameter |      value      |    tolerance    |    units   | OK? | <-- BFGS
 +-----------+-----------------+-----------------+------------+-----+ <-- BFGS
 |  dE/ion   |   1.702696E-005 |   5.000000E-006 |         eV | No  | <-- BFGS
 |  |F|max   |   5.555116E-003 |   1.000000E-002 |       eV/A | Yes | <-- BFGS
 |  |dR|max  |   1.437723E-003 |   5.000000E-004 |          A | No  | <-- BFGS
 |   Smax    |   2.367108E-002 |   2.000000E-002 |        GPa | No  | <-- BFGS
 +-----------+-----------------+-----------------+------------+-----+ <-- BFGS
  

================================================================================
 Starting BFGS iteration         17 ...
================================================================================
  
 +------------+-------------+-------------+-----------------+ <-- min BFGS
 |    Step    |   lambda    |   F.delta   |    enthalpy     | <-- min BFGS
 +------------+-------------+-------------+-----------------+ <-- min BFGS
 |  previous  |    0.000000 |    0.000000 |    -3273.369314 | <-- min BFGS
 +------------+-------------+-------------+-----------------+ <-- min BFGS
  

--------------------------------------------------------------------------------
 BFGS: starting iteration        17 with trial guess (lambda=  1.000000)
--------------------------------------------------------------------------------
 
                           -------------------------------
                                      Unit Cell
                           -------------------------------
        Real Lattice(A)              Reciprocal Lattice(1/A)
   4.5750460   0.0000000   0.0000000        1.3733600   0.0000000   0.0000000
   0.0000000   2.5570961   0.0000000        0.0000000   2.4571565   0.0000000
   0.0000000   0.0000000   6.1613806        0.0000000   0.0000000   1.0197691
 
                       Lattice parameters(A)       Cell Angles
                    a =    4.575046          alpha =   90.000000
                    b =    2.557096          beta  =   90.000000
                    c =    6.161381          gamma =   90.000000
 
                Current cell volume =   72.080960 A**3
 
                           -------------------------------
                                     Cell Contents
                           -------------------------------
 
            xxxxxxxxxxxxxxxxxxxxxxxxxxxxxxxxxxxxxxxxxxxxxxxxxxxxxxxxxxxx
            x  Element    Atom        Fractional coordinates of atoms  x
            x            Number           u          v          w      x
            x----------------------------------------------------------x
            x   C          1          0.180560   0.000000   0.550124   x
            x   C          2         -0.180560   0.000000   0.550124   x
            x   C          3          0.319440   0.500000  -0.550124   x
            x   C          4          0.680560   0.500000  -0.550124   x
            x   F          1          0.245681   0.000000   0.766782   x
            x   F          2         -0.245681   0.000000   0.766782   x
            x   F          3          0.254319   0.500000  -0.766782   x
            x   F          4          0.745681   0.500000  -0.766782   x
            xxxxxxxxxxxxxxxxxxxxxxxxxxxxxxxxxxxxxxxxxxxxxxxxxxxxxxxxxxxx
 
 
------------------------------------------------------------------------ <-- SCF
SCF loop      Energy           Fermi           Energy gain       Timer   <-- SCF
                               energy          per atom          (sec)   <-- SCF
------------------------------------------------------------------------ <-- SCF
Initial  -3.22822505E+003  7.18653663E-001                      5581.48  <-- SCF
      1  -3.27534153E+003  7.12910535E-001   5.88956007E+000    5593.66  <-- SCF
      2  -3.27534840E+003  7.12899300E-001   8.58194322E-004    5607.61  <-- SCF
      3  -3.27353994E+003  1.52986004E+000  -2.26057206E-001    5624.70  <-- SCF
      4  -3.27351303E+003  1.67937944E+000  -3.36449257E-003    5641.94  <-- SCF
      5  -3.27351662E+003  1.86316241E+000   4.48818311E-004    5659.33  <-- SCF
      6  -3.27351930E+003  1.84861915E+000   3.35014196E-004    5676.55  <-- SCF
      7  -3.27351929E+003  1.84307084E+000  -3.73397733E-007    5694.44  <-- SCF
      8  -3.27351926E+003  1.83651346E+000  -4.67101467E-006    5710.84  <-- SCF
      9  -3.27351926E+003  1.83574332E+000   3.39442641E-007    5723.61  <-- SCF
     10  -3.27351926E+003  1.83511739E+000   3.92892869E-008    5735.62  <-- SCF
------------------------------------------------------------------------ <-- SCF
 
Final energy, E             =  -3273.519259640     eV
Final free energy (E-TS)    =  -3273.519259648     eV
(energies not corrected for finite basis set)
 
NB est. 0K energy (E-0.5TS) =  -3273.519259644     eV
 
 
 ******************************** Forces *********************************
 *                                                                       *
 *                      Cartesian components (eV/A)                      *
 * --------------------------------------------------------------------- *
 *              x                    y                    z              *
 *                                                                       *
 * C    1      0.00112              0.00000              0.00361         *
 * C    2     -0.00112              0.00000              0.00361         *
 * C    3     -0.00112              0.00000             -0.00361         *
 * C    4      0.00112              0.00000             -0.00361         *
 * F    1     -0.00127              0.00000              0.00078         *
 * F    2      0.00127              0.00000              0.00078         *
 * F    3      0.00127              0.00000             -0.00078         *
 * F    4     -0.00127              0.00000             -0.00078         *
 *                                                                       *
 *************************************************************************
 
 ***************** Stress Tensor *****************
 *                                               *
 *          Cartesian components (GPa)           *
 * --------------------------------------------- *
 *             x             y             z     *
 *                                               *
 *  x     -0.005946      0.000000      0.000000  *
 *  y      0.000000     -0.011616      0.000000  *
 *  z      0.000000      0.000000     -1.018944  *
 *                                               *
 *  Pressure:    0.3455                          *
 *                                               *
 *************************************************
  
 +------------+-------------+-------------+-----------------+ <-- min BFGS
 |    Step    |   lambda    |   F.delta   |    enthalpy     | <-- min BFGS
 +------------+-------------+-------------+-----------------+ <-- min BFGS
 |  previous  |    0.000000 |    0.000000 |    -3273.369314 | <-- min BFGS
 | trial step |    1.000000 |    0.000000 |    -3273.369316 | <-- min BFGS
 +------------+-------------+-------------+-----------------+ <-- min BFGS
  
 BFGS: finished iteration  17  with enthalpy= -3.27336932E+003 eV
  
 +-----------+-----------------+-----------------+------------+-----+ <-- BFGS
 | Parameter |      value      |    tolerance    |    units   | OK? | <-- BFGS
 +-----------+-----------------+-----------------+------------+-----+ <-- BFGS
 |  dE/ion   |   2.162429E-007 |   5.000000E-006 |         eV | Yes | <-- BFGS
 |  |F|max   |   3.775646E-003 |   1.000000E-002 |       eV/A | Yes | <-- BFGS
 |  |dR|max  |   3.502687E-005 |   5.000000E-004 |          A | Yes | <-- BFGS
 |   Smax    |   1.894402E-002 |   2.000000E-002 |        GPa | Yes | <-- BFGS
 +-----------+-----------------+-----------------+------------+-----+ <-- BFGS
  
 BFGS: Geometry optimization completed successfully.

================================================================================
 BFGS: Final Configuration:
================================================================================
 
                           -------------------------------
                                      Unit Cell
                           -------------------------------
        Real Lattice(A)              Reciprocal Lattice(1/A)
   4.5750460   0.0000000   0.0000000        1.3733600   0.0000000   0.0000000
   0.0000000   2.5570961   0.0000000        0.0000000   2.4571565   0.0000000
   0.0000000   0.0000000   6.1613806        0.0000000   0.0000000   1.0197691
 
                       Lattice parameters(A)       Cell Angles
                    a =    4.575046          alpha =   90.000000
                    b =    2.557096          beta  =   90.000000
                    c =    6.161381          gamma =   90.000000
 
                Current cell volume =   72.080960 A**3
 
                           -------------------------------
                                     Cell Contents
                           -------------------------------
 
            xxxxxxxxxxxxxxxxxxxxxxxxxxxxxxxxxxxxxxxxxxxxxxxxxxxxxxxxxxxx
            x  Element    Atom        Fractional coordinates of atoms  x
            x            Number           u          v          w      x
            x----------------------------------------------------------x
            x   C          1          0.180560   0.000000   0.550124   x
            x   C          2         -0.180560   0.000000   0.550124   x
            x   C          3          0.319440   0.500000  -0.550124   x
            x   C          4          0.680560   0.500000  -0.550124   x
            x   F          1          0.245681   0.000000   0.766782   x
            x   F          2         -0.245681   0.000000   0.766782   x
            x   F          3          0.254319   0.500000  -0.766782   x
            x   F          4          0.745681   0.500000  -0.766782   x
            xxxxxxxxxxxxxxxxxxxxxxxxxxxxxxxxxxxxxxxxxxxxxxxxxxxxxxxxxxxx
 
 
 BFGS: Final Enthalpy     = -3.27336932E+003 eV
 
 ************************** Symmetrised Forces ***************************
 *                                                                       *
 *                      Cartesian components (eV/A)                      *
 * --------------------------------------------------------------------- *
 *              x                    y                    z              *
 *                                                                       *
 * C    1      0.00112              0.00000              0.00361         *
 * C    2     -0.00112              0.00000              0.00361         *
 * C    3     -0.00112              0.00000             -0.00361         *
 * C    4      0.00112              0.00000             -0.00361         *
 * F    1     -0.00127              0.00000              0.00078         *
 * F    2      0.00127              0.00000              0.00078         *
 * F    3      0.00127              0.00000             -0.00078         *
 * F    4     -0.00127              0.00000             -0.00078         *
 *                                                                       *
 *************************************************************************
 
 *********** Symmetrised Stress Tensor ***********
 *                                               *
 *          Cartesian components (GPa)           *
 * --------------------------------------------- *
 *             x             y             z     *
 *                                               *
 *  x     -0.005946      0.000000      0.000000  *
 *  y      0.000000     -0.011616      0.000000  *
 *  z      0.000000      0.000000     -1.018944  *
 *                                               *
 *  Pressure:    0.3455                          *
 *                                               *
 *************************************************
 
Writing model to CF-boat_sym_sz01x00.check                                                                                                                                                                                                                                       
Initialisation time =      2.17
Calculation time    =   5746.67
Finalisation time   =      0.34
Total time          =   5749.19
